
1000 atoms

1 atom types

0 1 xlo xhi
0 1 ylo yhi
0 1 zlo zhi

Masses

1 1

Atoms

1 1 0.01113645146516617 0.5053282568170568 0.1763111765548662 
2 1 0.000551918089715756 0.4104297064227723 0.02886729002307145 
3 1 0.8560196256965569 0.3409577650863144 0.7212161528830922 
4 1 0.4650875028030018 0.964870846657697 0.7525894437052988 
5 1 0.2453861463022642 0.3717414812590358 0.4148998141938319 
6 1 0.6707812182807473 0.3540615855393429 0.2016164445521963 
7 1 0.3945441777350502 0.6242406016991455 0.08620991648935547 
8 1 0.5208784678683945 0.2877226065530517 0.6251991923544428 
9 1 0.8058583270234552 0.7096551196526532 0.8717776384275608 
10 1 0.07948910056748593 0.6463108424309447 0.5370049220115675 
11 1 0.1814121534889206 0.4755133034332897 0.8499889817764623 
12 1 0.4071519762547647 0.4882522423397627 0.9652419715163143 
13 1 0.3045703233035554 0.5136828022260598 0.2471386482672712 
14 1 0.9335807839835729 0.06397300729430244 0.5832652533870156 
15 1 0.8735259414079656 0.891653286707604 0.8887245312424161 
16 1 0.615297783155939 0.1541678704256665 0.3551600257863849 
17 1 0.2051872954320903 0.1055851063372765 0.7152179858179172 
18 1 0.1465543376813997 0.8702916737140466 0.4297653151323286 
19 1 0.227469470002913 0.3038181478523516 0.5078341660562433 
20 1 0.4532042827529708 0.6472199877969934 0.5468360461848271 
21 1 0.462626477135637 0.1648100188530828 0.2318523740545201 
22 1 0.9147855960387674 0.5605028713713535 0.349977600191401 
23 1 0.5115033012517812 0.5090867944512455 0.4105652527570131 
24 1 0.835551058095668 0.1292157379382915 0.4047135918339684 
25 1 0.3827225291542229 0.5668047481404968 0.5643021115289806 
26 1 0.7394094482257977 0.04237635925172627 0.2663772150208482 
27 1 0.9607453762640933 0.9026159894191936 0.6563633083406227 
28 1 0.8069832567849295 0.08479586162751726 0.934760658077459 
29 1 0.3922053255044275 0.9494384488780756 0.411188771703638 
30 1 0.3398450168727868 0.02102449149921221 0.5979295374745065 
31 1 0.08820349982634633 0.4712061294278365 0.466588469914905 
32 1 0.05654225848693872 0.7308729755793433 0.0797150175198906 
33 1 0.7884401775644022 0.5815132172460979 0.5951493406786007 
34 1 0.173353848524755 0.3514440215737175 0.2284115950874626 
35 1 0.2057929391067982 0.2419993733282145 0.9785984669902584 
36 1 0.9360312753991115 0.1107025414581856 0.990826598974104 
37 1 0.1683658659514748 0.3291067868908614 0.929049982224375 
38 1 0.3111042833330999 0.8255851377648372 0.8461930518103041 
39 1 0.6203285686084572 0.5170627992709207 0.2652687153525781 
40 1 0.4583441680800034 0.02002608248630844 0.1559447523633838 
41 1 0.5625702165880154 0.9289442166865853 0.6698734491030337 
42 1 0.07955682705212999 0.3332067228752697 0.3186622528240334 
43 1 0.646899677989023 0.6486571534686764 0.696037419461355 
44 1 0.7357877504086026 0.5011841075339938 0.6435342118447598 
45 1 0.6067918868207469 0.4889286591309699 0.3677677242651148 
46 1 0.903867722392567 0.7169217020345744 0.178292184839777 
47 1 0.7620801675283778 0.5061522840207484 0.1607797418521087 
48 1 0.3300888137837458 0.1973305396354883 0.8387605548044934 
49 1 0.1097289806515886 0.5468797302305001 0.1767053354839599 
50 1 0.2003712352757011 0.9613538923352639 0.07936587009718804 
51 1 0.003392396409041017 0.9275126392549454 0.7544464274133307 
52 1 0.4602990656370884 0.1110276709530785 0.960172351161501 
53 1 0.6392637036708692 0.2977041957085945 0.4382333396730017 
54 1 0.7035311718183315 0.7416567687939299 0.8698559127872506 
55 1 0.7229893099217864 0.7511317024986729 0.2365347423793712 
56 1 0.6241082017133253 0.228022360864006 0.1798862627115551 
57 1 0.8123031002614353 0.5999166385354596 0.1695041707039631 
58 1 0.8912759841407403 0.09452463364394476 0.4899836151248759 
59 1 0.7597164608065651 0.9720670211037385 0.1889562550542905 
60 1 0.8543638947300893 0.7935601252789463 0.1141057323967507 
61 1 0.3658318597230017 0.2796862034641512 0.7817300002323722 
62 1 0.2392830683892423 0.5817757546035579 0.300958717614865 
63 1 0.2693065230348777 0.6351047390570973 0.3888207730667613 
64 1 0.7094677904956888 0.2517316826698988 0.6799727641955963 
65 1 0.5321769640119957 0.1387251620326813 0.7977459092454479 
66 1 0.1683536489648495 0.5847454848870649 0.0929402154959839 
67 1 0.6833895707279031 0.7851039113771615 0.4259507641836336 
68 1 0.8978041855579889 0.8282514511162449 0.6997777066011891 
69 1 0.5422541436924437 0.9223600166058642 0.3390080121598625 
70 1 0.2797452792431359 0.3640292301698123 0.6105878535500112 
71 1 0.9489417086489782 0.9781795368278372 0.8306318796285096 
72 1 0.7136374066708224 0.6867532222268663 0.06442838809085728 
73 1 0.4843428236156284 0.5005928226949335 0.2214572132969448 
74 1 0.7865405508307532 0.06928512011437805 0.4892013028112177 
75 1 0.5406170023888359 0.8812407417054881 0.04930169859750785 
76 1 0.962537870127306 0.04990073662770695 0.2059650373702709 
77 1 0.4448385038948107 0.4278798999494128 0.4708228255137059 
78 1 0.1755327372166397 0.1230971098525698 0.9923597760927538 
79 1 0.5831683613057466 0.7145588172892078 0.7535111372311364 
80 1 0.5279669740200749 0.3002014128076236 0.4250999909363574 
81 1 0.5457270937271825 0.08472256009603742 0.4960869939034542 
82 1 0.3464137307761056 0.5492961367752178 0.8069271097643641 
83 1 0.2526315415179362 0.05203636120221058 0.9687575069644728 
84 1 0.5321349569165629 0.7628442208820502 0.6682756749018836 
85 1 0.5720144246698192 0.2294817638412449 0.8368359308891614 
86 1 0.3029697493627894 0.01127099654514821 0.4067938343332043 
87 1 0.204413384477851 0.3489449270028744 0.8309274818682847 
88 1 0.7423358443093702 0.1163649675033945 0.8416076316687562 
89 1 0.4083439504403052 0.09007243278437435 0.869322472597761 
90 1 0.7213414859547415 0.380941007404104 0.4685768479944862 
91 1 0.9250867816668086 0.20830708207267 0.2516746702439499 
92 1 0.6221898450063466 0.6857078718960645 0.4282591749381528 
93 1 0.1343320187550075 0.2043099679068827 0.04787759932084892 
94 1 0.2641941491748507 0.1743671903186111 0.9197200405984365 
95 1 0.3730103722620181 0.1695845698384298 0.9324734454487795 
96 1 0.8720120897450214 0.44629215792564 0.6944921069112805 
97 1 0.2005425705024352 0.2690498114238656 0.1669114013665735 
98 1 0.9692850198843516 0.6716561751467026 0.105451405090847 
99 1 0.5260539926519685 0.6361240401500903 0.06015265896226012 
100 1 0.1978929839230986 0.9964674747591797 0.7143476565725478 
101 1 0.5725310447887881 0.9634006894628117 0.9878636965934381 
102 1 0.2690133842536056 0.8471629840815138 0.2078555697967807 
103 1 0.5423832870750049 0.4083163974147029 0.4255101394510524 
104 1 0.8847051958866097 0.9319458181982597 0.9942239100201137 
105 1 0.4606965453052527 0.3837854074589736 0.6126610523328383 
106 1 0.08349319449703381 0.5073514867976966 0.6539775808525885 
107 1 0.05550258984090961 0.2015160860542821 0.8396381880553394 
108 1 0.523882017416147 0.1969138797865605 0.150389393888831 
109 1 0.3706785574854842 0.336434727280265 0.3260135683139632 
110 1 0.5768344760789021 0.2045566893487905 0.4410211731842206 
111 1 0.1068612712750886 0.4424218465708973 0.5685760519589237 
112 1 0.6621082133917809 0.2186198685374009 0.2795866898707337 
113 1 0.1529677009118563 0.05232205521055842 0.796962789465981 
114 1 0.7833936416192474 0.08524371782315611 0.1772770002438659 
115 1 0.7501197167063786 0.9277618019668104 0.8488560735111198 
116 1 0.4882564071829149 0.8673070629299041 0.7171687323692071 
117 1 0.2414859192077491 0.8459741752726007 0.3864883213049221 
118 1 0.6796573830994188 0.9716160036199815 0.9872619937342648 
119 1 0.2924217971153165 0.2048333727067287 0.4247826087515635 
120 1 0.2123885288640693 0.9522936000771549 0.3970722923166756 
121 1 0.1155258965883135 0.9612121993632599 0.4754051795734154 
122 1 0.8641263998182955 0.7753703207694168 0.9425862981859985 
123 1 0.5722710782936706 0.2779714803220812 0.5197048014483762 
124 1 0.6741472353371749 0.5813846350104556 0.6087465979793047 
125 1 0.8480130754532391 0.3342519915910404 0.9672923476507294 
126 1 0.1809194575111418 0.04332402702746184 0.4529512896398151 
127 1 0.2767105897405787 0.1031747671900724 0.4536492186048787 
128 1 0.9354853193130872 0.1142947684669709 0.3107303809426374 
129 1 0.6311963045114073 0.6117041590206698 0.08644961353127149 
130 1 0.09911042193983829 0.2538713914614285 0.9594636996730393 
131 1 0.4059172843018714 0.9395460450738631 0.2022454153368676 
132 1 0.8160418521416501 0.5643620015540824 0.4888320695122333 
133 1 0.1055189365953725 0.8219644962447756 0.5152553557772871 
134 1 0.2988807765154094 0.9128675749344373 0.446922164983386 
135 1 0.6157550585607477 0.1992916028884873 0.7345557378816761 
136 1 0.9724684988488055 0.7996309107271659 0.4962818701879634 
137 1 0.03689145579469261 0.9797536705981791 0.1758126185695456 
138 1 0.006122124599233205 0.2530459787951559 0.1797165497320404 
139 1 0.3032994795272357 0.2069016632443513 0.2919205351520865 
140 1 0.9014689954931759 0.03512192768753749 0.7538816853658948 
141 1 0.545240048713892 0.9681125014421128 0.8800653024585879 
142 1 0.387096385419577 0.2032780421268325 0.5248940239957568 
143 1 0.1688292019734296 0.6131572181883933 0.9903067885588021 
144 1 0.5239154667188697 0.1840717735606059 0.5325408454642172 
145 1 0.9201060992998494 0.3928654886991476 0.4137746099910897 
146 1 0.7233034008365862 0.02546737114329082 0.899980189033405 
147 1 0.7464389481321475 0.5678965872459738 0.2468620104615947 
148 1 0.7891669357231529 0.7962520407944825 0.416198648143649 
149 1 0.672584655128344 0.04960552642975138 0.1819682495536511 
150 1 0.6886080523890127 0.4784567607903435 0.4399011092919386 
151 1 0.873668512787917 0.740224428999421 0.3833174687606289 
152 1 0.4063631711516884 0.3782498741527393 0.7821368317707053 
153 1 0.8721378430259773 0.5544764008362147 0.9373198879577194 
154 1 0.5523475641182456 0.7940083888133552 0.2156175073966571 
155 1 0.7450620836765974 0.6989337833530451 0.9583612890716965 
156 1 0.09060403808034692 0.08340777191683352 0.7137358371317218 
157 1 0.9025925295173437 0.8922829023803235 0.105411095154996 
158 1 0.1001078873089287 0.4054004121649504 0.8457559043981886 
159 1 0.0001402039061752363 0.8784854804383807 0.1479688312957251 
160 1 0.3447203834437019 0.6291902412194422 0.6421092741899855 
161 1 0.03511421708509709 0.8362170634599393 0.5945928857510336 
162 1 0.2718625034725921 0.4741977655776209 0.4295700794159663 
163 1 0.9566071689553763 0.9607961064360956 0.5659305291835542 
164 1 0.2279630578924292 0.4520624529920045 0.5783320914271397 
165 1 0.0465418791266135 0.7690729219969707 0.791411486610783 
166 1 0.1282228024018962 0.005570375003555262 0.3567543325022183 
167 1 0.696501312125729 0.6874919085424159 0.6098818325240543 
168 1 0.9320538092573365 0.2164820771196236 0.9776190499544888 
169 1 0.3414188788263849 0.4488649484026863 0.5883135307382925 
170 1 0.6186010854111258 0.7795005257567701 0.9252962648381158 
171 1 0.2362745267362978 0.6274698021271142 0.6806655376228289 
172 1 0.7827340377549697 0.9624045231308641 0.02125565859238037 
173 1 0.5444172275236995 0.7852886489673091 0.001897479313952438 
174 1 0.9124646679979874 0.596803157335045 0.4508657525141421 
175 1 0.999406190399271 0.03715927276327191 0.3632578713617316 
176 1 0.3190402319413975 0.8028300814712744 0.7423220763829087 
177 1 0.361761359150969 0.8671348857026424 0.2675908787753758 
178 1 0.3420112907552444 0.6761909130748067 0.008606381856482097 
179 1 0.387230235036851 0.8545897385933858 0.4714827541341066 
180 1 0.5823682035704243 0.988874133999071 0.1751334498205159 
181 1 0.356922266854865 0.03593310306215423 0.1880501562248286 
182 1 0.897612024725704 0.2874916236021398 0.4214966917885349 
183 1 0.9048005099635232 0.4863481772784393 0.7972642946629001 
184 1 0.4539719003794722 0.2022829390561589 0.6113473422839439 
185 1 0.6372608070815007 0.2353083467230026 0.5987041483691435 
186 1 0.2167230719219936 0.06820123600270155 0.07372119002826695 
187 1 0.4257019560590208 0.3253561811304455 0.4448869249942466 
188 1 0.5948136817486592 0.3313406417909799 0.01478936086520995 
189 1 0.8472342481047456 0.6673002107960484 0.9602583076217992 
190 1 0.0986781864822564 0.1840415467871017 0.6703453432687383 
191 1 0.639543375184627 0.7665945121562873 0.1496462742475335 
192 1 0.7270613139460456 0.8824189973885743 0.4051421817447985 
193 1 0.2888867803959462 0.7577767718209948 0.5532828865872793 
194 1 0.01163701929008715 0.1521618317398761 0.7543607937145647 
195 1 0.6696884489456842 0.2143087222098769 0.4992521493212555 
196 1 0.1022581953642672 0.9136782882738119 0.123395542599689 
197 1 0.1495862243588986 0.01962707199878648 0.002662388595604984 
198 1 0.4559088021534863 0.9386874512101039 0.6448158752757553 
199 1 0.8985956684454096 0.2490873151037467 0.1549212540504475 
200 1 0.05590925750487998 0.2492934333555133 0.7437891132111043 
201 1 0.6025580644867485 0.4364335531415224 0.0340510624405924 
202 1 0.3107522854413403 0.5690839860058218 0.1219248462121614 
203 1 0.5548590980694905 0.302883872005251 0.1439628072328304 
204 1 0.5043629660248176 0.5297204283172954 0.7151143103510202 
205 1 0.05438035177980634 0.634243231483857 0.6401551509925254 
206 1 0.6324238164836342 0.8777869763981591 0.9680622481505986 
207 1 0.1370610398563862 0.1828195172264575 0.176837696059122 
208 1 0.658272252458475 0.5089102934719753 0.09167298006925684 
209 1 0.05150387990223183 0.1891020950599959 0.5545350310501529 
210 1 0.4506806644045226 0.9370848497557713 0.03383020821049582 
211 1 0.9392605891911578 0.6615643732161123 0.6319553331113565 
212 1 0.6891233629520093 0.7204682966541728 0.7648846179272014 
213 1 0.5466611754659474 0.06871008221540301 0.006069723631768067 
214 1 0.5525013581171536 0.3140729420366545 0.7749484228259248 
215 1 0.3667871976484929 0.6416945540044835 0.9098266742331836 
216 1 0.2216755977803595 0.01334904204966693 0.2631579643890908 
217 1 0.2122636428398486 0.4262068103313914 0.02289716368379619 
218 1 0.002077705034516467 0.5341992538329715 0.4567538997619776 
219 1 0.768939322423232 0.8572059516326501 0.5010223604938863 
220 1 0.968600951635909 0.008840717217440895 0.003539619078331885 
221 1 0.6000080094745255 0.4009882184020377 0.134771699473148 
222 1 0.6746706503341194 0.1524265768255484 0.6538336019737945 
223 1 0.6745970729657031 0.2622449020676688 0.0002538218578513923 
224 1 0.3774983621156883 0.2729973318476368 0.8983120070233748 
225 1 0.1180721322122589 0.9907797273459841 0.251112770288934 
226 1 0.1159638875644575 0.4437047917145497 0.2047212697407455 
227 1 0.2526723065423758 0.3749447042555985 0.3011121937105306 
228 1 0.4945087452436411 0.383506107835154 0.1853967318095889 
229 1 0.3475510885950286 0.8426710965692062 0.3732136616635663 
230 1 0.9380366467844198 0.9433617566744199 0.3886596723019696 
231 1 0.3553806061821266 0.463635642511845 0.7432561502245106 
232 1 0.2597111426599181 0.2685690758621643 0.7854062191612819 
233 1 0.1136065827600508 0.744107494287774 0.2450201504389229 
234 1 0.1077752045841455 0.103323921857915 0.5259456999845415 
235 1 0.1018910754457044 0.5785443029106195 0.4478997785529633 
236 1 0.6549890958048162 0.2841633141201764 0.7868848120408596 
237 1 0.02209912464947004 0.9641995531166416 0.2888378924316522 
238 1 0.2541378446461559 0.6892467752076162 0.4790997150408455 
239 1 0.1910913487855182 0.104378572001782 0.8828669954329736 
240 1 0.3261601173091747 0.3581937635138502 0.8530855314344895 
241 1 0.2102951631204808 0.5340205881141431 0.7468073114655195 
242 1 0.3279881164649411 0.7545412969784413 0.2103820004775402 
243 1 0.9613552492983999 0.3185410450929473 0.9902812923892437 
244 1 0.7423146107456673 0.3020079991325167 0.9261408957955545 
245 1 0.4741848664368276 0.5759296193898351 0.6230776156601768 
246 1 0.729545887573042 0.003519360410690251 0.5687911146227935 
247 1 0.2066068320448512 0.896261106903551 0.294645289234316 
248 1 0.6497032771252429 0.9477893202992247 0.8873972697474173 
249 1 0.4424035326625093 0.4774335000436211 0.5651489766072215 
250 1 0.06148069601488204 0.0953972588201307 0.8307634316596223 
251 1 0.1320276634038173 0.1589110453609731 0.7762281450655479 
252 1 0.1975976033928916 0.09523788819699701 0.1788388134833206 
253 1 0.4089264992542887 0.8263599542593816 0.8975164121580056 
254 1 0.5043493847050986 0.5561280589915245 0.9523198804433965 
255 1 0.2866702334567093 0.7188200359643017 0.657381947703399 
256 1 0.8201788034907938 0.9667963562269929 0.2989557884039523 
257 1 0.1188304059590229 0.9111996243916578 0.5724635310349093 
258 1 0.6033174602285867 0.5399217168826426 0.4610678061903442 
259 1 0.6456978778077974 0.03338826017467809 0.8227077302920381 
260 1 0.5167050771117936 0.46116644855425 0.3153278378533558 
261 1 0.8556642610785425 0.3475175718805664 0.1398782308859494 
262 1 0.981144101806852 0.5651598415405359 0.090924611002394 
263 1 0.1177743242660259 0.548023457729645 0.5605240554389518 
264 1 0.834376504232254 0.02314957694373304 0.5757866470923001 
265 1 0.961942638983469 0.1223909818771506 0.4146944991427772 
266 1 0.5336549445274962 0.4745551489477894 0.5087478513678361 
267 1 0.3786623376096648 0.7003950775479425 0.7151486085044043 
268 1 0.03842041815074015 0.8550036901616164 0.8535450800711207 
269 1 0.40401105592004 0.239497247242083 0.2811726551286676 
270 1 0.1702556443437302 0.3510923773711356 0.5940258664866921 
271 1 0.05435995343299321 0.7373997354648865 0.4675401622740095 
272 1 0.2610361442388952 0.6649503359123706 0.858966722076176 
273 1 0.6265673587856397 0.9928699504203885 0.7261347730064566 
274 1 0.9152584765032472 0.7937002675909739 0.3004186195108582 
275 1 0.7385648462192566 0.1467702446989924 0.2968764044907742 
276 1 0.8487229465239182 0.2360678911030392 0.5737009855759011 
277 1 0.5079504387540867 0.4073942230303632 0.8019850066781161 
278 1 0.1435292587778143 0.4320264159862321 0.9394555586693096 
279 1 0.4862121455211055 0.5744394422709301 0.1433485395153801 
280 1 0.1066230642611256 0.4693830136434021 0.7531672187616635 
281 1 0.5591549974118911 0.1996487279192159 0.2604097768650071 
282 1 0.2508166481932365 0.2737762052638815 0.07244453407770356 
283 1 0.927297437642665 0.4145909638098781 0.9513482824847835 
284 1 0.1769201427522526 0.1560095472506787 0.4546667450372762 
285 1 0.4508834212794267 0.3957261745167562 0.3680765924837635 
286 1 0.6287361634109238 0.1359586288280349 0.02060368407611752 
287 1 0.4023185041496914 0.5192711918192764 0.2886797832411656 
288 1 0.1865614375909596 0.530545745807192 0.6413712000161845 
289 1 0.3254744472534116 0.5298480200875381 0.9105233917226597 
290 1 0.9523234973681535 0.5074550382346196 0.2653236135762983 
291 1 0.96535189548054 0.7812429097477268 0.1141425692181251 
292 1 0.7000103915013817 0.1553374360470752 0.1978712875195128 
293 1 0.9325139780504687 0.1673063176906991 0.5577629539526727 
294 1 0.5680138660974348 0.8841897317498649 0.5218821191632403 
295 1 0.1963295404113758 0.8627526312408856 0.1192076070803401 
296 1 0.5740207745278362 0.669113366218978 0.3262222399401234 
297 1 0.1143559354967824 0.09713430687520029 0.07597244802344333 
298 1 0.574409126903564 0.06383439944715766 0.39497063366285 
299 1 0.7511139124676207 0.4691757504650546 0.8510373238421822 
300 1 0.5643392984336677 0.3668078927214204 0.3300774963908538 
301 1 0.2491458808271022 0.7366228884497195 0.0336575276992249 
302 1 0.07446167119114223 0.8937181318773039 0.2268263604671328 
303 1 0.8852788563439763 0.6321662902577909 0.8658988806507766 
304 1 0.6486031906719669 0.3925649275603986 0.3903455450111016 
305 1 0.5577537479135894 0.5303932828155491 0.06083920766310393 
306 1 0.2473142701907753 0.5603938255926346 0.8444877424046253 
307 1 0.6211418061000951 0.04568644349069822 0.07875057094842038 
308 1 0.2564008683893697 0.6316523869039692 0.05402661016715975 
309 1 0.05271165780678788 0.1776351163431059 0.1122783222262188 
310 1 0.1759633418626283 0.002240645568242164 0.5528075546856787 
311 1 0.1171026902592104 0.5348605660493643 0.9140342112087765 
312 1 0.5792048419494783 0.1428085897853528 0.9222223213925848 
313 1 0.9766178587867608 0.4763684335448801 0.3707879164259643 
314 1 0.1533007368299692 0.7166285647042507 0.5058701388978667 
315 1 0.8524449336253181 0.5834200153244293 0.2668890909023517 
316 1 0.6012225046990711 0.7930970346474511 0.3187954828514057 
317 1 0.4247965987713812 0.5569659571180837 0.8801059196840878 
318 1 0.1401238091288464 0.345587290992049 0.4065280745010776 
319 1 0.6371039290003713 0.5940931757922215 0.3755421245343099 
320 1 0.3749231155107559 0.9105389480898898 0.8347894569826986 
321 1 0.1703672455902742 0.4735090367970564 0.1136949729568241 
322 1 0.7624654985076846 0.2556200967571216 0.3029759846433653 
323 1 0.366884985557318 0.8456586132137512 0.1635276191840734 
324 1 0.8100168187513259 0.8382628950379715 0.02730560163141036 
325 1 0.1257978752998075 0.7819049957496615 0.9412111896588307 
326 1 0.5133932594423449 0.02338636981276316 0.6771729972127953 
327 1 0.907685211622918 0.8405304950634245 0.3966398766410674 
328 1 0.3604820239155893 0.6002227674316744 0.433618863491002 
329 1 0.6898559103939044 0.6719526302913971 0.1670190525963763 
330 1 0.1576687368272577 0.6340992308095308 0.6085750632615571 
331 1 0.4392627399519681 0.6717571992001576 0.4442055048362333 
332 1 0.6642571419666563 0.9624289752520507 0.2431047957233833 
333 1 0.6450284098130286 0.4438847988771472 0.6489881901367872 
334 1 0.4130204084301692 0.1164645065888315 0.1415319668602137 
335 1 0.04804744304721883 0.4002497808326949 0.3970599682462461 
336 1 0.865015639889074 0.4983680172928856 0.2033502844644773 
337 1 0.676067173726592 0.4995565085865031 0.9868476385906083 
338 1 0.3474953671300712 0.5684473545678972 0.008172745008760283 
339 1 0.487209001226454 0.3487562684239433 0.9763286959321628 
340 1 0.9578782083882388 0.5049786449067405 0.004591476221643867 
341 1 0.6219177534787076 0.7187031583716934 0.2442993696309667 
342 1 0.4942969271797233 0.7790180235948365 0.3034806121334965 
343 1 0.4648989823774058 0.7229379402663595 0.04040866829944946 
344 1 0.7930809410333851 0.4618137420411126 0.469293077064174 
345 1 0.8548423097392975 0.2458894415646813 0.9078912251729264 
346 1 0.3289498761763927 0.9559651838536964 0.001832782812613823 
347 1 0.3298411976753758 0.2040932976467758 0.08963944167166159 
348 1 0.6072002152310458 0.3859555400144001 0.8336051930499865 
349 1 0.3205620010074028 0.306975947883635 0.4535746688795171 
350 1 0.3184222690927671 0.1170397223209188 0.5531265595692719 
351 1 0.2867628309947343 0.6873769380104892 0.2956355334016433 
352 1 0.6261001586299619 0.4988179348446601 0.5598220997728638 
353 1 0.2856929023477662 0.5390184204473406 0.5988572422936154 
354 1 0.3381362615593613 0.4387303491962524 0.3198025165174187 
355 1 0.4818071697844137 0.1161102572644261 0.4127019971107306 
356 1 0.3533309042834944 0.1353759471070377 0.2276775625414693 
357 1 0.1633539724482059 0.8349214139844985 0.2168260239373592 
358 1 0.8916404547600248 0.6857577285012525 0.2806621830985417 
359 1 0.689697460497726 0.6410104040879867 0.8383361938614404 
360 1 0.305706276265043 0.1924463777474271 0.7265151737415305 
361 1 0.2404290075149346 0.04508355895906273 0.6273689126084812 
362 1 0.3812667457981945 0.4492772614453238 0.8691732392242303 
363 1 0.6549133718800257 0.8336634403914563 0.2308871922668874 
364 1 0.6706741365705773 0.4271125236419341 0.909189105352342 
365 1 0.5321815953863737 0.07941484909587797 0.207172953554058 
366 1 0.3888028920615372 0.3005517234961161 0.04086028942453885 
367 1 0.03119559971575218 0.9051633662829557 0.5123247968059492 
368 1 0.8400595501930342 0.9056637728485556 0.2109032985710327 
369 1 0.1998484303936635 0.2135247612060308 0.7044471897765217 
370 1 0.7594242807252222 0.1958598478609878 0.9142805159153115 
371 1 0.1640057122073161 0.3234246019219562 0.03575024185012081 
372 1 0.3121913582890893 0.2386726150023121 0.9898336755938593 
373 1 0.9925963414054885 0.7200164796840017 0.2951126525674423 
374 1 0.1075466339428643 0.4157141447723895 0.0382716619314015 
375 1 0.7697118596175658 0.9614690789339927 0.4782319861077447 
376 1 0.7283147143611094 0.4567460199716938 0.7428962015060682 
377 1 0.9030113355158427 0.8997196301840338 0.2979658876726108 
378 1 0.8650747024775233 0.8108687598688172 0.489514893386793 
379 1 0.4450266270924033 0.1144525928154766 0.5147224042851751 
380 1 0.9520002889776628 0.8425798082655257 0.7926517472239545 
381 1 0.3188167617892086 0.09808971736079017 0.6780308319552452 
382 1 0.3340303811043965 0.3025667968845728 0.1323776167935054 
383 1 0.3520937173989178 0.7025758146106605 0.3834133171419468 
384 1 0.05586885759499078 0.8616886122517206 0.9583806040059414 
385 1 0.4873672088817582 0.822959071531743 0.4886896944964876 
386 1 0.4533365627579959 0.5434736985113636 0.04492242807784214 
387 1 0.4054813156226119 0.02423807695271185 0.6849881477951484 
388 1 0.7877452141948899 0.1077144567899518 0.7429055291672748 
389 1 0.8538989357689718 0.4558883294224495 0.8861636720103184 
390 1 0.9279971674177545 0.7038917270990493 0.4673978953902474 
391 1 0.368987742682339 0.6197297705169093 0.3083309253535861 
392 1 0.7425970303221167 0.8914197477519039 0.2612853038200528 
393 1 0.466237792038 0.6826406507396826 0.1434476118560308 
394 1 0.6256077490816431 0.1081372151027356 0.2580949376875922 
395 1 0.219711586620458 0.5453141929545865 0.1785123545833421 
396 1 0.8616658015120351 0.4726838147425337 0.312350552359342 
397 1 0.2509666409141517 0.9408568521921715 0.6003611656752494 
398 1 0.2849985625908275 0.7976258473222179 0.1150717604397053 
399 1 0.09659064605208224 0.6790526204161919 0.9470641558177835 
400 1 0.6383944228344616 0.3248905673367529 0.9170059473246954 
401 1 0.3200509777763851 0.8648156740703448 0.945708510777471 
402 1 0.4572846582499736 0.3122774197366414 0.7139136742423318 
403 1 0.946444493278389 0.1988701949454205 0.8288184603105145 
404 1 0.5436573599194924 0.6889934647066475 0.5050011362090018 
405 1 0.8098862773447528 0.7320656000219138 0.03670385087188976 
406 1 0.6693510115778882 0.320804424147223 0.3128926198176017 
407 1 0.3526347247953193 0.4023712963022961 0.4186756792636986 
408 1 0.170807267207356 0.7612700121374886 0.1402583071935728 
409 1 0.4495606951943646 0.7780473002935658 0.1911555576270064 
410 1 0.7379075798922559 0.6424619184632738 0.5222102676122401 
411 1 0.5414375298967938 0.3742912844453651 0.6857694178660675 
412 1 0.3785440443530048 0.7258470913769079 0.6031934926096618 
413 1 0.2237172253464149 0.7644698992107946 0.855096846180882 
414 1 0.1724923831575944 0.2161595114282243 0.878219270001573 
415 1 0.05207251838008613 0.5451947142328538 0.2670429409989476 
416 1 0.6367007329266544 0.03973653608776033 0.5300053719074052 
417 1 0.9950894450304033 0.7107698953825753 0.551804547387013 
418 1 0.3021221671473504 0.9464750163244053 0.2292917794444956 
419 1 0.8776321922860647 0.2802050263640597 0.3159604323446074 
420 1 0.1454054818936599 0.8382533946006346 0.8527407992875381 
421 1 0.2411003000081635 0.7391731081647006 0.3802723068157755 
422 1 0.9183948600124395 0.6084392510633749 0.1788485797621862 
423 1 0.4460065710665843 0.2354538164968915 0.9737862511653382 
424 1 0.1760942556781117 0.7952700965615102 0.3148128675885757 
425 1 0.2092163386766968 0.4282633210409776 0.7580691224238361 
426 1 0.9614524012394625 0.3365627632217618 0.1278365531059509 
427 1 0.4073971774209038 0.9267882485326087 0.935502209207743 
428 1 0.7746633372455337 0.5131189998834154 0.9481783770036776 
429 1 0.7801394667614557 0.1712830726125731 0.6564843504582405 
430 1 0.9805325728971284 0.002522272375891382 0.4702257141758889 
431 1 0.6447738776536412 0.6741110123495929 0.9300091789964924 
432 1 0.04030923458040212 0.4345968184569674 0.2856302685614123 
433 1 0.5913327035325845 0.2578016331527901 0.3501143336844702 
434 1 0.9500434910253207 0.2419562259403582 0.7315771877536505 
435 1 0.3684628959387119 0.3849906607163205 0.6691865228358563 
436 1 0.4405540972556051 0.01888257312289175 0.562952048615691 
437 1 0.2244694208013336 0.5128385162449465 0.9403594168990231 
438 1 0.05733187077624659 0.3219214163919288 0.04499430033823741 
439 1 0.4168024283011196 0.404749826954674 0.03391919496175053 
440 1 0.1153539869243339 0.8119573637354549 0.6655226519065078 
441 1 0.4089986046918582 0.836083519028478 0.5749641263720403 
442 1 0.8810577591685305 0.2773734682205428 0.05301122236563866 
443 1 0.7762733402143042 0.6123216389460252 0.9031586120646472 
444 1 0.5942906320200193 0.5078925335668207 0.9190887482478471 
445 1 0.6725487224359352 0.7117123919621261 0.3379582805581949 
446 1 0.7743024978677584 0.4068008789015352 0.9374633565849272 
447 1 0.709899434478607 0.7991298203443173 0.981042599963503 
448 1 0.4801686133906872 0.8885433658530099 0.8429897256927856 
449 1 0.03920601105572035 0.5555964482666008 0.7456724974752996 
450 1 0.2173779247485778 0.1692534033300531 0.3566273494186881 
451 1 0.4486339378060824 0.3038498176969631 0.1293933964748083 
452 1 0.02630739600463849 0.3935255817259358 0.7672029950440016 
453 1 0.3601827037263639 0.4894208300235885 0.4911221603997408 
454 1 0.3208218131853975 0.9776086646887874 0.8978990550496787 
455 1 0.6733360622405709 0.3155588956546088 0.5377475392318787 
456 1 0.8667486344398876 0.7308549481280295 0.6703333480769753 
457 1 0.1529451050744611 0.2652556574321294 0.7851127066749921 
458 1 0.9462422930434382 0.6616751849942722 0.3715196964237709 
459 1 0.007194182323719512 0.8131520009108222 0.2447732772917028 
460 1 0.3866703956417539 0.3620740765266655 0.5389790761080436 
461 1 0.8384345675813928 0.3745206162805734 0.3464873479406556 
462 1 0.126410027595774 0.558233924627043 0.8082116615439721 
463 1 0.5752118785685845 0.9038785453095228 0.2388864745436034 
464 1 0.7298441722496635 0.6881789346279534 0.4263993660114782 
465 1 0.164277049904627 0.6251163230760933 0.8826013444010127 
466 1 0.2851895308439878 0.4611777386088508 0.8251213558046611 
467 1 0.545403029535219 0.5071371598433221 0.8238400345850809 
468 1 0.8090453672415092 0.112175566616681 0.07421371993080648 