
100 atoms

1 atom types

0 1 xlo xhi
0 1 ylo yhi
0 1 zlo zhi

Masses

1 1

Atoms

1 1 0.6643364425614624 0.4654711009188833 0.5678584104449798 
2 1 0.3723295811892297 0.99088874205503 0.2226381753256413 
3 1 0.5054834651476978 0.4264168820186577 0.9448284028468729 
4 1 0.9127513642320476 0.2379531110400691 0.063906686209037 
5 1 0.7582399925794766 0.2764687408128599 0.5952808225898202 
6 1 0.5953598239760889 0.9513416121040458 0.2203408206994105 
7 1 0.8251417630573811 0.4316038120846227 0.0908604421985065 
8 1 0.02774997097369577 0.7796952214301944 0.3493180943432647 
9 1 0.03632651027070206 0.6249770602436892 0.6155635791603937 
10 1 0.4178738243880982 0.9122853744673676 0.7523705954052182 
11 1 0.4019142792989474 0.4487343908175487 0.6024206770871066 
12 1 0.6726978188533573 0.6124037365094623 0.1202205690510927 
13 1 0.6768774609375646 0.7525062413163285 0.2982407669476064 
14 1 0.596306050666339 0.129619408773534 0.5528210326255787 
15 1 0.2466445857760286 0.7587400390199223 0.7769626890457404 
16 1 0.2241187171363908 0.5444348113462976 0.7629998613097799 
17 1 0.994209276604837 0.8221823405089248 0.00413118103967831 
18 1 0.03077604347939219 0.4813471422365924 0.9956980891782279 
19 1 0.8441938843967005 0.588274659049849 0.251526845865956 
20 1 0.4402626336118986 0.01765970275155181 0.4431649076900142 
21 1 0.5771387718286927 0.6639460518436917 0.9281506840191507 
22 1 0.02478152476940471 0.03143905041869705 0.4648753363461376 
23 1 0.8858344035824857 0.5146113399291682 0.4692970336117752 
24 1 0.2201653488616426 0.9064405612368736 0.4006803631763836 
25 1 0.9729706413780281 0.04080410827618589 0.7154255253787872 
26 1 0.210003690651764 0.8840153380312247 0.9750484141024749 
27 1 0.06765257481882909 0.3981566294181503 0.8001824089300883 
28 1 0.219015885472859 0.3914886126650259 0.3912736611049355 
29 1 0.00461011840499383 0.4455149047997913 0.2526679877433655 
30 1 0.3318248091504204 0.3108602688419364 0.8252462573120839 
31 1 0.4471853024024606 0.5653810740041186 0.7875157775176242 
32 1 0.6171643025375787 0.3150642456264025 0.4094475326875035 
33 1 0.6036735514676244 0.0682322849110055 0.01754166170131273 
34 1 0.3886692345696921 0.1986005082583236 0.6430568937463466 
35 1 0.4250035280066623 0.9317523613434063 0.01793508704493699 
36 1 0.9781704179687161 0.264704881241466 0.4023646773635035 
37 1 0.7988804172594066 0.3744609799439085 0.2976344157514184 
38 1 0.7732678392490346 0.9308479203708393 0.4044275621184131 
39 1 0.6864573797366378 0.2661926367564189 0.9553370881670064 
40 1 0.8980616892416778 0.4479526470515987 0.677079781646057 
41 1 0.3996346910538734 0.2510379588462042 0.4303898192410437 
42 1 0.7873832381568545 0.7567027575109463 0.8502722185338317 
43 1 0.9877506541731915 0.8060954108437764 0.7852580475340182 
44 1 0.0079475949020657 0.04781224042377724 0.9637293395897084 
45 1 0.2857747136111545 0.4735051170465396 0.958485747948972 
46 1 0.515889402465015 0.09209823081944145 0.8198496003150154 
47 1 0.1618748379700604 0.9571509012484612 0.7660128813793535 
48 1 0.7178447777127829 0.8131679817316649 0.06223557609072939 
49 1 0.4099613454391209 0.7575419944301143 0.3408840269220531 
50 1 0.7121249346438233 0.1604563679400262 0.7725808220627114 
51 1 0.2435907521545713 0.6153426462264593 0.5497166139853649 
52 1 0.947556758396177 0.592792161598126 0.8301998871228717 
53 1 0.812657006739861 0.07295987102401061 0.5668544382779805 
54 1 0.3606409731245659 0.8100537428257293 0.5435076090388108 
55 1 0.1124666355144852 0.2476235847443295 0.952518441418081 
56 1 0.8671944011144684 0.8243464754982669 0.2174392802497654 
57 1 0.9077201865458834 0.2174324160425198 0.8469428261812239 
58 1 0.7238776318354411 0.2151650725019813 0.1765844051236614 
59 1 0.1602814248237802 0.2191826503497339 0.5054749904197605 
60 1 0.05744021943048891 0.6740803820731237 0.1619049836286144 
61 1 0.8338925191448014 0.01630422623140477 0.1032997788030888 
62 1 0.600420513393674 0.8959168909692463 0.885675882179064 
63 1 0.6354636037240502 0.5384761399013658 0.3291312734682774 
64 1 0.07187565822142833 0.9354288457917076 0.2046318001926126 
65 1 0.4346404687067459 0.4484054788353489 0.3449487050414652 
66 1 0.8627799785762957 0.8649617813647459 0.609031394024516 
67 1 0.2775585624358605 0.5914422521380452 0.3340923101590549 
68 1 0.1500058660728452 0.675256219157616 0.9672745252227526 
69 1 0.8343070586828797 0.7232326801243441 0.4450570400438059 
70 1 0.8010637327791975 0.002226919596993053 0.8917751963586906 
71 1 0.122534220961786 0.4323904986661169 0.582850652047428 
72 1 0.2527245554519379 0.03997001431728942 0.5802911854684989 
73 1 0.8034286788898967 0.6629433408445855 0.6464533326760373 
74 1 0.5528519020289284 0.3061808219984649 0.7368553262169126 
75 1 0.2407989330292972 0.1228072036565489 0.3342308823320335 
76 1 0.5869971107272016 0.8384141588103705 0.4854660028525927 
77 1 0.4379864028226175 0.5398161046718538 0.1442565239839147 
78 1 0.07747921929804141 0.5795203964167392 0.4043018418037793 
79 1 0.2028570489075847 0.4902161687529648 0.1563630991144385 
80 1 0.9567535335429567 0.1155862579407977 0.2480219971328138 
81 1 0.210180471988977 0.08887353668187276 0.08401755780838652 
82 1 0.1110896558823564 0.2657177875241163 0.1728170381192608 
83 1 0.4939679805759535 0.6318225230017546 0.4929926367275861 
84 1 0.4159498028863234 0.184290631164295 0.04278710867024188 
85 1 0.2748749876775746 0.7560182993367276 0.1730593499721869 
86 1 0.506835451282718 0.1641405602660595 0.2601055588836612 
87 1 0.1083441112488492 0.8277953208421259 0.578989895014956 
88 1 0.5065729276336151 0.769703531407119 0.1513318540828037 
89 1 0.7460983619858935 0.1462257195411967 0.3784147966076365 
90 1 0.6819472425220844 0.945218827965158 0.694872630541118 
91 1 0.8731024944787945 0.6416254394987417 0.04668155752179667 
92 1 0.6531491724448054 0.501111076685867 0.7795095504539732 
93 1 0.3807459040227881 0.7259002206733947 0.984927453187552 
94 1 0.3221657888730241 0.3158702991364337 0.2023383671776489 
95 1 0.2946316262531461 0.09534263725982826 0.8868162246347862 
96 1 0.5270572328700792 0.7476451272411488 0.6710577335953503 
97 1 0.5672251146825351 0.3752323781013425 0.1794318984388223 
98 1 0.9751424086979168 0.2461907814874993 0.6159386421224774 
99 1 0.1729671644120878 0.1827774909912123 0.7349308893103343 
100 1 0.8275059963591344 0.4205349489025224 0.8763764387455495 
