
1000 atoms

1 atom types

0 1 xlo xhi
0 1 ylo yhi
0 1 zlo zhi

Masses

1 1

Atoms

1 1 0.4258659728081019 0.4729257105482361 0.5787778418916807 
2 1 0.3525725200734423 0.5415961185243813 0.5431451352126855 
3 1 0.5299923150494996 0.9892668465270088 0.981616086720876 
4 1 0.6855803669774014 0.7680248472263327 0.8752255169928094 
5 1 0.09513342793075315 0.2075817630386582 0.9630073702634019 
6 1 0.7144035913413229 0.6691885274260366 0.4410621013915736 
7 1 0.6968882788860651 0.5439707112122427 0.9503170976406241 
8 1 0.007788595551327218 0.4392127993952849 0.4757188809186954 
9 1 0.4870467568280865 0.139468025112492 0.9398863916535839 
10 1 0.5898397861452589 0.2476683301411676 0.5701521501924117 
11 1 0.1473197366601126 0.267929762421926 0.5633495466737342 
12 1 0.9302920704101106 0.0349421459173145 0.7442486902701655 
13 1 0.2969699457014878 0.3803978797562227 0.2147170664845928 
14 1 0.4419046209518213 0.6765918037468291 0.4063176330085848 
15 1 0.6792676666994577 0.4062720785969525 0.3616918666040804 
16 1 0.7728244716850766 0.6182860934595784 0.8233006134529536 
17 1 0.2608462714237696 0.7351215193413501 0.8739141265307186 
18 1 0.07017737595855487 0.4946452275503164 0.2449296410383103 
19 1 0.5443806050167093 0.05324035768865336 0.6476475104937627 
20 1 0.7726601925581371 0.2239435854772454 0.1404078545292559 
21 1 0.2845502302432307 0.9977285024738186 0.9847932538856228 
22 1 0.3130716748587513 0.1821470380812141 0.2483351082027356 
23 1 0.05579211932730306 0.01571942342877081 0.2850988974959401 
24 1 0.5221405998677729 0.8448076490226287 0.4687572754019835 
25 1 0.8966793232527682 0.1052134438635382 0.4513973915728361 
26 1 0.7844083874207216 0.994771987362852 0.3742217273649595 
27 1 0.5724471286748659 0.8764608328014543 0.30232526526515 
28 1 0.1045296614075364 0.5053441291844839 0.4642114475881747 
29 1 0.9466084983044253 0.7790603443700858 0.6449797124674148 
30 1 0.3200495266235586 0.7780671281737699 0.9529106479929941 
31 1 0.2409291339117119 0.7228498085164238 0.2750456262834546 
32 1 0.3752071734632627 0.5060023929536416 0.7392587323024923 
33 1 0.2008207599052842 0.4180728536544066 0.07535796441828928 
34 1 0.03858465704010197 0.2683505515121771 0.1052000203482373 
35 1 0.6724994709963265 0.8354453998526774 0.6910405998438105 
36 1 0.8101035190800018 0.7003497327835483 0.7664544530310278 
37 1 0.5150287266201672 0.1852857583442129 0.329363662986603 
38 1 0.06771381522686283 0.8237939225659736 0.8880508453590782 
39 1 0.4203460025219847 0.08399482198536647 0.7734101710051888 
40 1 0.1337777597595092 0.5685928616644731 0.8681269339200818 
41 1 0.3422936922254318 0.4459796971008541 0.4901605807356855 
42 1 0.5480520852995584 0.9675060054767887 0.3518536105207645 
43 1 0.1008656564377999 0.6844093286097896 0.2175899100061097 
44 1 0.9043867711891131 0.8026553986853262 0.9028751722664858 
45 1 0.1978070074241364 0.9370856815808455 0.7540660960517902 
46 1 0.5344321977730784 0.07942697770123144 0.3275418785538393 
47 1 0.900297331530224 0.7763019665152668 0.4373869916519492 
48 1 0.6738616841479728 0.9238051438614142 0.8562620231094099 
49 1 0.8930248351532676 0.5127319964064398 0.5881534054770069 
50 1 0.8958318420233025 0.2640499719121042 0.9060925855557361 
51 1 0.2123890616817552 0.5230837357159889 0.8124724794007782 
52 1 0.8476869992041716 0.6433702173233635 0.2967292200915789 
53 1 0.1850054258374082 0.5422136393094241 0.5251791880279937 
54 1 0.1173699692818979 0.264592180371055 0.8540058041533828 
55 1 0.6100170378290212 0.4707941463874166 0.9901453637488316 
56 1 0.7124250059385658 0.6935944668497697 0.1675835612448838 
57 1 0.7872056382557746 0.7121246680680002 0.2425634995254398 
58 1 0.9003306554925032 0.7544987799474058 0.1061580583812547 
59 1 0.08714522063558976 0.03936931735847819 0.1848998924817296 
60 1 0.673487975846094 0.7102398909531357 0.06681960705268766 
61 1 0.1403807055674733 0.7801686451733574 0.6999792657829439 
62 1 0.6917207137821857 0.1928730601197998 0.8799821557689522 
63 1 0.991675724962696 0.5241269701203773 0.9349625851322182 
64 1 0.2487407946766228 0.03197679336430585 0.7195673022701825 
65 1 0.0006982904430769814 0.8033520409470948 0.4600117207774191 
66 1 0.5791396296073598 0.9728060190107253 0.8315353305708502 
67 1 0.8502529250328881 0.8965219179189535 0.8983625713555335 
68 1 0.400226192671834 0.2651906691177885 0.6953192916247027 
69 1 0.09513036294100377 0.5067289778798467 0.6769839789044807 
70 1 0.4935474927865556 0.7470480036378934 0.7084981087618979 
71 1 0.594164999705332 0.5778158983698274 0.957956437885471 
72 1 0.1232597247544054 0.212808162371747 0.06734307812324264 
73 1 0.8393704292822165 0.2548859905559409 0.8129434345583562 
74 1 0.02645779948009492 0.9972387034952549 0.3866719727897948 
75 1 0.7065464174627401 0.07169666101130399 0.3669665788278794 
76 1 0.1527241502386278 0.888006207071754 0.8788949495355055 
77 1 0.965306000699254 0.4998355057988361 0.3992073716304495 
78 1 0.2319820640853912 0.6630452381670292 0.6779568122098046 
79 1 0.4946154850772969 0.1303259884164561 0.8338982501969247 
80 1 0.9846406718766756 0.6488406695876394 0.8387571547345656 
81 1 0.1982315052028044 0.5968899494828868 0.1413841894215822 
82 1 0.5722274611021979 0.3266042601302697 0.09918518137520903 
83 1 0.6691587164879186 0.3782857243357527 0.1706467337465012 
84 1 0.7085608686473315 0.02943238216698649 0.587516950358163 
85 1 0.1394232163017125 0.6018953727056583 0.9700697412255008 
86 1 0.8376279057908688 0.6323636391828115 0.9805666481508388 
87 1 0.2363325844360471 0.301291098551838 0.6137756296770572 
88 1 0.1039968871705361 0.1064453318547216 0.996511450037429 
89 1 0.4714267124269407 0.6309249842541946 0.3145690966819854 
90 1 0.8226011019478171 0.2490263431213945 0.3475579617761432 
91 1 0.7965218907349813 0.7860420336499405 0.832823256604634 
92 1 0.8909121926803069 0.667374936452297 0.3920250258028783 
93 1 0.2879823307432897 0.3361355351863803 0.8218942992386344 
94 1 0.5256060771451019 0.04499133400949522 0.8904539532575831 
95 1 0.04056066970065592 0.8907289732771857 0.4130800548454853 
96 1 0.2111958097032679 0.9512745501686692 0.04758190942416101 
97 1 0.5171149696703699 0.2245537363613484 0.4917042525769301 
98 1 0.8865945367755665 0.5632335281197883 0.3648745720344596 
99 1 0.8723426642063442 0.7011991490483067 0.9072594672014794 
100 1 0.446155631456179 0.1051391269556361 0.03277985921073045 
101 1 0.114159897587555 0.02382006535326187 0.5607810356234445 
102 1 0.943276786230381 0.5547299437756299 0.0979691292948934 
103 1 0.954993717971062 0.05100343251294013 0.2812010000828424 
104 1 0.3064138763526011 0.8249369377655896 0.6162245397969472 
105 1 0.3610674937180174 0.41304052505836 0.3901361076352623 
106 1 0.8308645331373216 0.5983113188398098 0.7353734442887638 
107 1 0.6838480132205996 0.439305450416778 0.2606040642239951 
108 1 0.07115964218887934 0.3369666133594112 0.01488706661220258 
109 1 0.3801983707300162 0.1295156353176625 0.9528913408543929 
110 1 0.04695048280337466 0.6184409657429177 0.919412174634432 
111 1 0.6744964088559585 0.1374338392396978 0.1632108405731134 
112 1 0.1619615381001646 0.3720030475246387 0.5805475723513186 
113 1 0.366775143763215 0.1715201242574825 0.7382951529354405 
114 1 0.8255784122051855 0.0337987152069523 0.7228759310287539 
115 1 0.003839208787949687 0.233640356908015 0.730608415402098 
116 1 0.4164173324759767 0.9549678735991538 0.3675246378714302 
117 1 0.1985580514235634 0.6283176903122056 0.2432530851405823 
118 1 0.6538670014453465 0.8429903208446871 0.9468636640407965 
119 1 0.1563118328945259 0.987305598777017 0.2557557829812239 
120 1 0.6274629669879986 0.5239141448474055 0.7245881864650269 
121 1 0.8376616169262037 0.5237308195779231 0.2760572594439961 
122 1 0.07663742231178818 0.0009614432669042448 0.01446286659434888 
123 1 0.277816845890015 0.5758069283165258 0.7295803297523304 
124 1 0.3318165699025853 0.1128088746089119 0.1367992535540506 
125 1 0.9799177400150303 0.04182413089427142 0.4715130004723954 
126 1 0.8085544100350276 0.8268841443776457 0.4124451512180048 
127 1 0.01292761403071175 0.1826174931249891 0.3251643798632471 
128 1 0.09561805183367855 0.03821990068445409 0.9141809121331086 
129 1 0.5829829428711172 0.7839438107058277 0.6630357197539059 
130 1 0.4690757211089157 0.3789722610793914 0.4127423712844057 
131 1 0.5156348521187571 0.6954721292697209 0.2401497987597976 
132 1 0.5843986726276016 0.7709483627448048 0.2720587000380356 
133 1 0.8241815727869092 0.4595595609568698 0.9821453722727592 
134 1 0.6138392720172859 0.2811276405538091 0.01075430850678889 
135 1 0.3782350149554524 0.3700771929995323 0.0531770475448347 
136 1 0.7409002103772583 0.9758720609390706 0.2776587243161945 
137 1 0.3560437668241444 0.4192276108061928 0.9611340061709102 
138 1 0.9829471015288882 0.526081540647455 0.1927798154746857 
139 1 0.3844314572027351 0.5641661956650283 0.1281474194863269 
140 1 0.2588447401648509 0.1690407019500567 0.7677763026994873 
141 1 0.3718648057404897 0.9610434191863336 0.2534320631582576 
142 1 0.7228009389270527 0.3976995315062799 0.8148907324878635 
143 1 0.4928011530681096 0.8859026791579838 0.995834436345085 
144 1 0.1237566212898341 0.472863028263383 0.7741282596331348 
145 1 0.6733161139432959 0.6034569958987617 0.7803798974570912 
146 1 0.7171719720509593 0.03757804289261964 0.9995232290746447 
147 1 0.7473322300335045 0.8574541029345217 0.8976055671654987 
148 1 0.9219946568607009 0.1868974371968826 0.3820841800529058 
149 1 0.6722497294932458 0.6145737379057287 0.3595131563426044 
150 1 0.3235254629645439 0.334967152627798 0.6658360322091958 
151 1 0.3075314046506102 0.5917179690841152 0.1962664379474396 
152 1 0.9911434285050548 0.7093464274034196 0.5152689231017668 
153 1 0.4936059514795241 0.2281241770040264 0.6585695076869958 
154 1 0.2076291204606655 0.3510354944456733 0.158408425206411 
155 1 0.1260442180653654 0.1383735863072653 0.1791585072620838 
156 1 0.02499203025363752 0.1012428838608127 0.5502796462896901 
157 1 0.0567126482631081 0.9284497044990322 0.856188209475509 
158 1 0.8437127471667629 0.07114143334777612 0.1185806192628118 
159 1 0.6546994908245314 0.8141119226074157 0.05137925330940538 
160 1 0.8626796245181949 0.2479597714742137 0.5689172548214663 
161 1 0.531163578104723 0.3840462312153171 0.8141339870299156 
162 1 0.7665204262854449 0.8665925468423563 0.6507912233121714 
163 1 0.4103317971175343 0.1840383962251901 0.2042453375158172 
164 1 0.3160706162469362 0.08309071309413162 0.7951738601822375 
165 1 0.6607448349484967 0.7143545525534172 0.3216058486234886 
166 1 0.05379127811049565 0.5000158585524261 0.8510842580232176 
167 1 0.2783639441049992 0.5321232419349653 0.1126147799800834 
168 1 0.9903377020709025 0.2656109855977185 0.009340549141942933 
169 1 0.5126588990862252 0.9228661498824106 0.1820401240776741 
170 1 0.4718761183209067 0.9402477165041159 0.4576190584198815 
171 1 0.2013793101465609 0.8930174040649769 0.2301297976021454 
172 1 0.3498777736981816 0.1298461755216077 0.4619170931312173 
173 1 0.2746329703982464 0.3137867608373028 0.9312529607883568 
174 1 0.1552662936066495 0.4510666235098923 0.2980616518563728 
175 1 0.7042535739877901 0.2676569074511108 0.2122175353799823 
176 1 0.2797804653307601 0.1040239037118458 0.9788215103961192 
177 1 0.7577702052063091 0.06451918164052295 0.7999465916705262 
178 1 0.8064466782146132 0.7238196057042484 0.4405280502276255 
179 1 0.349095811858298 0.7213237552363266 0.04737386255299355 
180 1 0.8622420347276845 0.9151394854814565 0.6785893609508382 
181 1 0.5094191379357347 0.5309826426720458 0.3056084933205419 
182 1 0.6093936368129071 0.3587432686526815 0.5570592138091579 
183 1 0.7045427818906492 0.1339965697801069 0.2665756424036081 
184 1 0.998591220684055 0.4958881885292231 0.5743151388917501 
185 1 0.8014731522945314 0.9418313986489114 0.9939435704888006 
186 1 0.6222480704525101 0.005816716966734923 0.03725668484787686 
187 1 0.229653792072389 0.751148890961393 0.3774640570347731 
188 1 0.746808502143275 0.6085314441835346 0.5227465643421988 
189 1 0.77116841007679 0.3923397547721423 0.661651014505094 
190 1 0.2023377439251189 0.9627812541527297 0.5289505902783714 
191 1 0.2238860016182802 0.4884915526534513 0.6989257186056691 
192 1 0.08319268831447781 0.1845199614456872 0.4212796367879103 
193 1 0.1912768182829979 0.3422163944541081 0.8714304843924974 
194 1 0.3723224563753049 0.2919428503068505 0.2083737464984508 
195 1 0.2146474838678843 0.7690076304160376 0.622982102957423 
196 1 0.9281236443421115 0.5791635536041337 0.267422971041627 
197 1 0.9138538034444657 0.1002131135910968 0.04137281619906908 
198 1 0.2814562832251687 0.6043494908284842 0.4062000444397916 
199 1 0.4811417709639596 0.9924073003335365 0.5519577546370356 
200 1 0.2648647607258548 0.975702279205253 0.2551975102858638 
201 1 0.4778241867689764 0.3749997567791124 0.09179228992064825 
202 1 0.9015108799503307 0.7556825425165787 0.9988872140050367 
203 1 0.06675111062742438 0.8102211518152089 0.05094618550535471 
204 1 0.8033712913515421 0.3266354320075641 0.7412954192592183 
205 1 0.6180386637463184 0.2679639356718252 0.8997397199716103 
206 1 0.9733328760515129 0.6890741638146313 0.9504631392301134 
207 1 0.7997835815900299 0.5544305619944095 0.916911747805338 
208 1 0.5248131951917364 0.1636533054632801 0.5788230022488864 
209 1 0.2933958312980044 0.6720988637737579 0.9699837457836006 
210 1 0.4616361365606302 0.6101899419521627 0.953258048957358 
211 1 0.5857618136492766 0.1755191402406716 0.6676670118322636 
212 1 0.9986987010996335 0.3989165830621445 0.06573078477048529 
213 1 0.1781885783844569 0.6930350798788464 0.9270560435495874 
214 1 0.0431413729982176 0.9749424871066448 0.1121000889267293 
215 1 0.4738211881563082 0.9839969068112124 0.8120009352786585 
216 1 0.6094481369442515 0.8387955131746269 0.8498327602088699 
217 1 0.07077585128419329 0.3298421804018594 0.3732654186841784 
218 1 0.2385844016578206 0.2581462621002509 0.0152834808962739 
219 1 0.2867072911914133 0.8021685420683942 0.4784807686524883 
220 1 0.1463295671841418 0.4120449842935071 0.6896826243218557 
221 1 0.9178404587885037 0.342210861770993 0.0256509706278868 
222 1 0.2718178923823401 0.8653659251696878 0.1153383051446203 
223 1 0.260938227947505 0.9940009187977685 0.8185715228942927 
224 1 0.6538999602842568 0.2592585098185764 0.6633094281345028 
225 1 0.9320396418172477 0.2307552817116336 0.6521112565780582 
226 1 0.7077069884264743 0.2650368473060724 0.9591812613643461 
227 1 0.9589174784900788 0.9144496026301663 0.1362782115559527 
228 1 0.4724583939427213 0.8259530833138136 0.6393128780406293 
229 1 0.6709053947891782 0.003633550803510258 0.7852494300811584 
230 1 0.1567539376945982 0.1780354267908495 0.8055684647437894 
231 1 0.6923925317887739 0.3238435949829476 0.7438979823467393 
232 1 0.8800587520865284 0.4351239185209095 0.8204106231106336 
233 1 0.785610736296422 0.02159035775199972 0.192637069323725 
234 1 0.9650042227584983 0.3382406169180153 0.6566368848316624 
235 1 0.7123491544243353 0.753643228588995 0.9777884812695941 
236 1 0.2337940719919497 0.8480802220106516 0.8201081608354533 
237 1 0.9681058451720789 0.1323745168086139 0.7242578264151347 
238 1 0.2588295855140824 0.369755740667217 0.5347934585150993 
239 1 0.6911248011544914 0.1598276615488978 0.6715855685761327 
240 1 0.8946407866854525 0.4422148367592809 0.2338417592422562 
241 1 0.5842535701962454 0.5552375164189879 0.3789776060844035 
242 1 0.06903074400236132 0.9872261909123187 0.6522465939422358 
243 1 0.94223148554221 0.7946916998538651 0.286423620678261 
244 1 0.9597653715549224 0.1193864906511732 0.8316601372950664 
245 1 0.6204047045459093 0.001784104195973524 0.9268624513196121 
246 1 0.07355132213812567 0.1517938981807755 0.7253363424037982 
247 1 0.5323086789194954 0.06155102393471808 0.7618199330536464 
248 1 0.5888368136127602 0.850291682629108 0.2004753832988375 
249 1 0.5762191682787149 0.1639004005063766 0.7738457044412559 
250 1 0.07234712495019438 0.3864290056499853 0.280661504500893 
251 1 0.8881338438962401 0.6876152293306408 0.4984405980775573 
252 1 0.7121297836961834 0.7560835844449797 0.5091698176254519 
253 1 0.7155915830855719 0.6347425758918216 0.2644400593155887 
254 1 0.4378502575065772 0.8446736536375176 0.2001782410455106 
255 1 0.1423698728378397 0.01804128849829874 0.09650277820977073 
256 1 0.4865010628332548 0.8102977998350011 0.288834375649863 
257 1 0.9762575853383669 0.7634841150700943 0.7464260969018796 
258 1 0.5294034327989883 0.48072084195426 0.06033724237619985 
259 1 0.9981298962941189 0.5508866632146581 0.6653488578578391 
260 1 0.4930021319282832 0.9349340537021499 0.6407617002896759 
261 1 0.4952488982633226 0.6634519733721232 0.1402855494351687 
262 1 0.7621843180951702 0.6920282851383163 0.3477938263702612 
263 1 0.5703503827065767 0.6690012599746998 0.6185515996952899 
264 1 0.5235042773440097 0.9463616118316994 0.07886015564628246 
265 1 0.3165370264897709 0.6942027258605858 0.351402703462376 
266 1 0.408219155807464 0.8946397305893522 0.8331180916187804 
267 1 0.63289243906519 0.5581800592735259 0.2672766176148308 
268 1 0.7404491568380301 0.1084715854953507 0.5214828849956546 
269 1 0.8785804941810316 0.1383672953592835 0.6664764296494466 
270 1 0.7297666355124326 0.8632727733909089 0.5341225435617399 
271 1 0.4398493413405715 0.100135174334534 0.1394803880351117 
272 1 0.8419419076912625 0.1479284302193873 0.5387889199101794 
273 1 0.1820295033837958 0.3221844275106662 0.4786482301022926 
274 1 0.7168593123333858 0.7726323975537105 0.4034160439943809 
275 1 0.4914051450953134 0.2949243874401919 0.161381036310988 
276 1 0.004191480165975952 0.2398588501377467 0.9066835268713835 
277 1 0.4777829755633282 0.7156341806407411 0.8865193529402865 
278 1 0.7820075709083308 0.4695670958201903 0.588854731470255 
279 1 0.4421039249966387 0.03033243192039948 0.2966984008761772 
280 1 0.9722416549526356 0.7351491248139024 0.3697326841230069 
281 1 0.8292905366743437 0.1876222515787902 0.4371216426286929 
282 1 0.618719058747949 0.1476573803565372 0.3297179721404171 
283 1 0.7909856038938742 0.4614827865433975 0.76381464151884 
284 1 0.9953986517007567 0.4166874540236647 0.210074696245863 
285 1 0.9137298912022853 0.3002145022991382 0.3710647485621977 
286 1 0.9283758011121543 0.3353923065288859 0.2337669498698103 
287 1 0.7780107853314654 0.1282331244583686 0.187587895055916 
288 1 0.1946130866669346 0.7086546429943268 0.1689679017208911 
289 1 0.6785520759365677 0.1883903918772729 0.5697453924218091 
290 1 0.4080495438338925 0.5124131108150757 0.9483445080585037 
291 1 0.528281450267318 0.6906834023365026 0.9784144681122967 
292 1 0.3089598726566931 0.3394804256398266 0.3130049940534808 
293 1 0.9624123097588605 0.3932490538708531 0.7510964386344475 
294 1 0.4691992145103207 0.9250066888965159 0.2793384699753262 
295 1 0.6538895465615587 0.2497723808143706 0.4797984263032165 
296 1 0.3223733096294391 0.01301207209928799 0.173673611814671 
297 1 0.5241183164843628 0.4687097450815856 0.3940073673371587 
298 1 0.08358043799363321 0.2802402868950468 0.4705190317652285 
299 1 0.8101259995851892 0.6148275183617435 0.4374018334190544 
300 1 0.8812274302327563 0.01064404853358658 0.6325961082261556 
301 1 0.3840463940208729 0.8627313404182591 0.2958979805663543 
302 1 0.4241745612053487 0.3797665365780387 0.5243937566938766 
303 1 0.2154390489928278 0.7526592348521077 0.7742760206956121 
304 1 0.001992728430660941 0.2868077201889635 0.2989854371225555 
305 1 0.6497067246479337 0.6071127146267354 0.6615698292692516 
306 1 0.3097413432016408 0.2295254200448634 0.6433046934563702 
307 1 0.2729786826038793 0.6982783406268865 0.4592433422735714 
308 1 0.6233266491030908 0.7208314650823354 0.4218417735376065 
309 1 0.7039157778625061 0.5095858489661637 0.5281180097130941 
310 1 0.6461487274257246 0.05893756443997121 0.503487005946885 
311 1 0.3120659872425933 0.9584702882472809 0.0827081090915095 
312 1 0.6467274735522053 0.8198127068671945 0.5851065981015109 
313 1 0.2196661990731412 0.03747853700547905 0.3309051219787702 
314 1 0.1174241352319199 0.9170000075984334 0.574725353459377 
315 1 0.04057234388202032 0.6841720762350307 0.3056511754792793 
316 1 0.132665804435891 0.7306082669360454 0.3383150146424245 
317 1 0.2623933473724184 0.5754104378616408 0.01637345879227052 
318 1 0.3409053923413624 0.2364753708917011 0.4491018202491643 
319 1 0.8694321339819157 0.9538179244854876 0.7788972171266778 
320 1 0.7977051446464337 0.7158280110136156 0.03364243310006092 
321 1 0.3016957709802923 0.9107118896563872 0.4660236911799494 
322 1 0.3452958723839687 0.2773915092899635 0.01231683507316965 
323 1 0.476012450123466 0.3151954102884455 0.7529727377268967 
324 1 0.2098925398390223 0.03910390853244474 0.9014930114514074 
325 1 0.9656053313392651 0.3835177152741137 0.325424367954423 
326 1 0.1539316125802782 0.296236657618617 0.9599219026375769 
327 1 0.2702409430871262 0.1688280394142502 0.06598494332572134 
328 1 0.04628777617263667 0.4107755254961183 0.6422737496692721 
329 1 0.7829319278405698 0.2084808599928649 0.2573580737867932 
330 1 0.4614884913401119 0.7714920066027241 0.9988401722850333 
331 1 0.2589264433158198 0.4027899803123516 0.4326216065573634 
332 1 0.1448625356918773 0.7912313545838818 0.4280003043124554 
333 1 0.4237327215790644 0.7393316745567099 0.2088589148626514 
334 1 0.8193448585253095 0.6920361677215654 0.1391262949586253 
335 1 0.8302967898356559 0.2946840607187812 0.4434291961192577 
336 1 0.1929061495751388 0.1651133091109451 0.9901353187983609 
337 1 0.08831604141041602 0.442918300184366 0.5495606676911835 
338 1 0.06506180597532016 0.7210179594457187 0.4219190178074492 
339 1 0.8866145587644499 0.5421605700310631 0.00837122190365118 
340 1 0.2032742107394726 0.36160244798636 0.2646231776677006 
341 1 0.4658330710287539 0.8857780775566577 0.5500871868893881 
342 1 0.81501507818774 0.3917814565406512 0.4003822548496349 
343 1 0.2019281207689235 0.07708949702946213 0.590175573643748 
344 1 0.8680607137609914 0.7933928017419822 0.7216227860760972 
345 1 0.142300391101932 0.3078288179276755 0.6635381496981498 
346 1 0.4344572722325412 0.28830668316532 0.468550456657834 
347 1 0.131867472673773 0.4187992420806252 0.1985548153891817 
348 1 0.6953767018591369 0.6744593714266455 0.589934963938333 
349 1 0.1164221012829351 0.65970974580074 0.1134458296442405 
350 1 0.891856606068451 0.8518816144106701 0.8084642369179994 
351 1 0.2618078720322944 0.2578629681303638 0.5172982109920661 
352 1 0.4916786907999907 0.8787771729055323 0.3725587246045309 
353 1 0.3432149732024035 0.4061552247558215 0.5891293285329843 
354 1 0.627930597404844 0.1000859197073123 0.6009510453381738 
355 1 0.6229650184789416 0.5725394181140901 0.5635821068482191 
356 1 0.2305284983033327 0.3405606335693678 0.7172919652571276 
357 1 0.2304311378831578 0.9776006649311946 0.4234121509887084 
358 1 0.4527774629392741 0.4943313952653062 0.2223263616173674 
359 1 0.7876753479960829 0.07081800564989726 0.2939478290111524 
360 1 0.4812682322986662 0.1269091220395468 0.6951451067128727 
361 1 0.836005362365949 0.4836559839878396 0.08569541441009143 
362 1 0.2101514769840854 0.2307337991293675 0.6935497509341811 
363 1 0.04808232021390511 0.4669290081264156 0.13253314988585 
364 1 0.9173807756773993 0.7814526864978981 0.5424086232172567 
365 1 0.2045885630154165 0.223709076872527 0.9002297167487715 
366 1 0.002707078387154188 0.2522682502689761 0.4050047387170879 
367 1 0.8722147350242712 0.4087239448860344 0.5986190627097072 
368 1 0.4954062688058342 0.5483813406434583 0.1376261861445105 
369 1 0.6139559227584458 0.9271976169417671 0.131426405519833 
370 1 0.1010902519006982 0.4412821719575071 0.04351364935826314 
371 1 0.8015487156231724 0.609410881260316 0.2052917082298358 
372 1 0.272091995739 0.1268268401066093 0.6605681420288757 
373 1 0.7079113479992493 0.8353638618662287 0.792648076170094 
374 1 0.6445309461957026 0.3965603226034887 0.06035146794636953 
375 1 0.3899252392087522 0.7545186943793541 0.6549648431812639 
376 1 0.7294342775871961 0.3353373227017252 0.03654207907341939 
377 1 0.9187857779351546 0.3952070678910259 0.4237064396815182 
378 1 0.5816563223446878 0.1666659236223774 0.8836201355904467 
379 1 0.2532334562138685 0.187660988743335 0.4116660174613275 
380 1 0.7777379790574692 0.8834937390545019 0.1164731675978404 
381 1 0.9034257487364814 0.6366569430497578 0.1805919400873077 
382 1 0.7330700745014088 0.4421400979235185 0.4511042253913816 
383 1 0.9334212262879471 0.1224132106324066 0.1450509381451214 
384 1 0.6832212303532532 0.8456556589412334 0.1514772843464928 
385 1 0.0723270395565388 0.7597601918786375 0.1457470555178898 
386 1 0.09566394306163546 0.6168701977439918 0.480605594781402 
387 1 0.8021945125836994 0.8705389673008234 0.7544108743839967 
388 1 0.07463626982061908 0.7642885149523699 0.7948984800419746 
389 1 0.974263685680282 0.4854624509885612 0.2931818338739989 
390 1 0.794439920621436 0.9189358537035879 0.4667917139557107 
391 1 0.5788795056582433 0.6382188457873329 0.3120047358794786 
392 1 0.2304039420109485 0.4538324352989643 0.1750782307659821 
393 1 0.3052257295819013 0.5138289150845078 0.9173837756647738 
394 1 0.7062371504631467 0.7170703938582091 0.7827109459722736 
395 1 0.2665310548142221 0.4784946679247596 0.5577559661419369 
396 1 0.196636013751606 0.8455867071145809 0.04122964206319717 
397 1 0.8583672659334494 0.1497389391538636 0.3044589748070777 
398 1 0.429306260546644 0.4695898811733936 0.1075329050140412 
399 1 0.4182354739672016 0.1482427789416614 0.3051045490888984 
400 1 0.3912062559686676 0.998705567155565 0.6148944807026633 
401 1 0.7967718996942231 0.3334361009798459 0.5669615097351226 
402 1 0.4366284057515042 0.8133364622441493 0.7705186362750955 
403 1 0.6236042940657519 0.6836181372176078 0.2255126033681748 
404 1 0.7395105489467089 0.245685667100749 0.4143680496782191 
405 1 0.3179782858597537 0.7826548941799906 0.7967385693558439 
406 1 0.6098740141788868 0.07694071180276431 0.8331855821584541 
407 1 0.6914562351502148 0.03998361812560271 0.1108777066630045 
408 1 0.7199416311301894 0.01479288804485457 0.8864186996093326 
409 1 0.6692234330762281 0.4850875759787026 0.1642905653207584 
410 1 0.4358937661111583 0.006264724079487315 0.08663433218377448 
411 1 0.515103998993922 0.5059330352186 0.9568192992803425 
412 1 0.7437607474139196 0.4325508339540085 0.1069051583593968 
413 1 0.1995691474152323 0.5006603395826903 0.9170226198854414 
414 1 0.8538627903181084 0.9883624206505138 0.2787349585315269 
415 1 0.6441044337569354 0.2424306887470602 0.7984456467171714 
416 1 0.5417242880432565 0.7365357824113942 0.07499135299347252 
417 1 0.1741333968463237 0.1195398918701126 0.08602439187573561 
418 1 0.5406684281911943 0.6091517736941204 0.04678965239807276 
419 1 0.3705690561919694 0.7425975138887919 0.4500958158246554 
420 1 0.1515784140738901 0.2624299480863745 0.3906346677246882 
421 1 0.01101427016066287 0.9919524689855596 0.5616713266808182 
422 1 0.6670439471078267 0.3649973628350927 0.647178417988542 
423 1 0.661517178779527 0.3335192697157717 0.2853630134112242 
424 1 0.3217574359876396 0.1311305575661297 0.3469613225176095 
425 1 0.09253669057919228 0.09314778495462435 0.8174490069153846 
426 1 0.07450530078406165 0.3469168449525802 0.9061703461798785 
427 1 0.1339412088765553 0.8923139813451635 0.6771993039367677 
428 1 0.61438505501144 0.6849128851335676 0.8263161971980765 
429 1 0.5154810280383236 0.8872011711671723 0.8279939010437318 
430 1 0.2651081729661425 0.4597601018073144 0.0009820634249969435 
431 1 0.8442244396023241 0.5948324046031962 0.0963825821078801 
432 1 0.2038806282813569 0.6512438245281088 0.3481891794788886 
433 1 0.04956908114671848 0.7472585738082734 0.6551330986366345 
434 1 0.7683947340976316 0.2229049186659935 0.518566166522872 
435 1 0.3725122538065324 0.5476690910321952 0.2682807666548284 
436 1 0.7380584805591378 0.01012492348938904 0.4722458056563452 
437 1 0.2884297544845474 0.6751769362320343 0.7699259424645564 
438 1 0.735715727600542 0.3349410633713079 0.4747684055298903 
439 1 0.90210541707342 0.6904619543666509 0.604129093931265 
440 1 0.3432466620093561 0.003696490266701167 0.4289075713121069 
441 1 0.4059527600670483 0.5165125582045237 0.8414677342898382 
442 1 0.5661917933573652 0.9862703916148214 0.4857577498863604 
443 1 0.7075302609413608 0.4018028801563377 0.5533648304284126 
444 1 0.6834055998602685 0.6284161600794107 0.8860555148283185 
445 1 0.1690281437203606 0.1227477021796093 0.3994193312260108 
446 1 0.2605777709853006 0.2984217359382462 0.4103039466305796 
447 1 0.7640024235942319 0.5750524147782369 0.6224134165989302 
448 1 0.7628551051087595 0.1611266965153653 0.3541071989365049 
449 1 0.9964254351603763 0.7316288052179992 0.06567511743313816 
450 1 0.7210481390056097 0.4338517935435601 0.9962594815011385 
451 1 0.2124251436681911 0.8741919110326392 0.6047902175398914 
452 1 0.9923032780850006 0.9278235205841093 0.02916943988841997 
453 1 0.3473567734325059 0.801071657231463 0.1559202952356247 
454 1 0.09083488164018051 0.5713857113730412 0.0596231716961027 
455 1 0.1432573149058516 0.6809248670543181 0.7385752231647064 
456 1 0.5580315791531907 0.8423724628885878 0.09798808594188438 
457 1 0.5023200128438552 0.4008619622308714 0.6941308058876637 
458 1 0.4547300616782886 0.0844759640697556 0.5986258469395324 
459 1 0.8445435786313757 0.799277155868615 0.618018315374037 
460 1 0.9506904869952599 0.9432867543029481 0.4386361458766184 
461 1 0.1252658317558662 0.1388684419235804 0.5480576820208065 
462 1 0.4923206768482696 0.2781778461304636 0.04640021151114002 
463 1 0.3458013487325627 0.3022035143319163 0.5662037509274748 
464 1 0.3552746308002885 0.689232151188746 0.8551868037497685 
465 1 0.3681113625673263 0.3983546816102268 0.8564472323443796 
466 1 0.9713760827447357 0.3379939484287369 0.9326860405222109 
467 1 0.7417705714908148 0.7708127552808594 0.6113232502375195 
468 1 0.4466887603632318 0.007285960640351728 0.1925275695742092 
469 1 0.7818892439652452 0.1850104866114585 0.6193785028887628 