
125000 atoms

2 atom types

0 50 xlo xhi
0 50 ylo yhi
0 50 zlo zhi

Masses

1 1
2 2

Atoms

1 1 0 0 0
2 1 1 0 0
3 1 2 0 0
4 1 3 0 0
5 1 4 0 0
6 1 5 0 0
7 1 6 0 0
8 1 7 0 0
9 1 8 0 0
10 1 9 0 0
11 1 10 0 0
12 1 11 0 0
13 1 12 0 0
14 1 13 0 0
15 1 14 0 0
16 1 15 0 0
17 1 16 0 0
18 1 17 0 0
19 1 18 0 0
20 1 19 0 0
21 1 20 0 0
22 1 21 0 0
23 1 22 0 0
24 1 23 0 0
25 1 24 0 0
26 1 25 0 0
27 1 26 0 0
28 2 27 0 0
29 2 28 0 0
30 2 29 0 0
31 2 30 0 0
32 2 31 0 0
33 2 32 0 0
34 2 33 0 0
35 2 34 0 0
36 1 35 0 0
37 1 36 0 0
38 1 37 0 0
39 1 38 0 0
40 1 39 0 0
41 1 40 0 0
42 2 41 0 0
43 2 42 0 0
44 1 43 0 0
45 1 44 0 0
46 1 45 0 0
47 1 46 0 0
48 1 47 0 0
49 1 48 0 0
50 1 49 0 0
51 1 0 1 0
52 1 1 1 0
53 1 2 1 0
54 1 3 1 0
55 1 4 1 0
56 1 5 1 0
57 1 6 1 0
58 1 7 1 0
59 1 8 1 0
60 1 9 1 0
61 1 10 1 0
62 1 11 1 0
63 1 12 1 0
64 1 13 1 0
65 1 14 1 0
66 1 15 1 0
67 1 16 1 0
68 1 17 1 0
69 1 18 1 0
70 2 19 1 0
71 2 20 1 0
72 2 21 1 0
73 2 22 1 0
74 2 23 1 0
75 2 24 1 0
76 1 25 1 0
77 2 26 1 0
78 2 27 1 0
79 2 28 1 0
80 2 29 1 0
81 2 30 1 0
82 2 31 1 0
83 2 32 1 0
84 2 33 1 0
85 2 34 1 0
86 1 35 1 0
87 1 36 1 0
88 1 37 1 0
89 1 38 1 0
90 1 39 1 0
91 1 40 1 0
92 2 41 1 0
93 2 42 1 0
94 1 43 1 0
95 1 44 1 0
96 1 45 1 0
97 1 46 1 0
98 1 47 1 0
99 1 48 1 0
100 1 49 1 0
101 1 0 2 0
102 1 1 2 0
103 1 2 2 0
104 1 3 2 0
105 1 4 2 0
106 1 5 2 0
107 1 6 2 0
108 1 7 2 0
109 1 8 2 0
110 2 9 2 0
111 2 10 2 0
112 2 11 2 0
113 2 12 2 0
114 1 13 2 0
115 1 14 2 0
116 1 15 2 0
117 1 16 2 0
118 1 17 2 0
119 1 18 2 0
120 1 19 2 0
121 1 20 2 0
122 1 21 2 0
123 1 22 2 0
124 1 23 2 0
125 1 24 2 0
126 1 25 2 0
127 2 26 2 0
128 2 27 2 0
129 2 28 2 0
130 2 29 2 0
131 2 30 2 0
132 2 31 2 0
133 2 32 2 0
134 2 33 2 0
135 2 34 2 0
136 2 35 2 0
137 1 36 2 0
138 1 37 2 0
139 1 38 2 0
140 1 39 2 0
141 1 40 2 0
142 1 41 2 0
143 1 42 2 0
144 1 43 2 0
145 1 44 2 0
146 1 45 2 0
147 1 46 2 0
148 1 47 2 0
149 1 48 2 0
150 1 49 2 0
151 1 0 3 0
152 1 1 3 0
153 1 2 3 0
154 1 3 3 0
155 1 4 3 0
156 1 5 3 0
157 1 6 3 0
158 1 7 3 0
159 2 8 3 0
160 2 9 3 0
161 2 10 3 0
162 2 11 3 0
163 2 12 3 0
164 2 13 3 0
165 1 14 3 0
166 1 15 3 0
167 1 16 3 0
168 1 17 3 0
169 1 18 3 0
170 1 19 3 0
171 1 20 3 0
172 1 21 3 0
173 1 22 3 0
174 1 23 3 0
175 1 24 3 0
176 2 25 3 0
177 2 26 3 0
178 2 27 3 0
179 2 28 3 0
180 2 29 3 0
181 2 30 3 0
182 2 31 3 0
183 2 32 3 0
184 2 33 3 0
185 2 34 3 0
186 2 35 3 0
187 1 36 3 0
188 1 37 3 0
189 1 38 3 0
190 1 39 3 0
191 1 40 3 0
192 1 41 3 0
193 1 42 3 0
194 1 43 3 0
195 1 44 3 0
196 1 45 3 0
197 1 46 3 0
198 1 47 3 0
199 1 48 3 0
200 1 49 3 0
201 1 0 4 0
202 1 1 4 0
203 1 2 4 0
204 1 3 4 0
205 1 4 4 0
206 1 5 4 0
207 1 6 4 0
208 1 7 4 0
209 2 8 4 0
210 2 9 4 0
211 2 10 4 0
212 2 11 4 0
213 2 12 4 0
214 2 13 4 0
215 1 14 4 0
216 1 15 4 0
217 1 16 4 0
218 1 17 4 0
219 1 18 4 0
220 1 19 4 0
221 1 20 4 0
222 1 21 4 0
223 1 22 4 0
224 1 23 4 0
225 1 24 4 0
226 2 25 4 0
227 2 26 4 0
228 2 27 4 0
229 2 28 4 0
230 2 29 4 0
231 2 30 4 0
232 2 31 4 0
233 2 32 4 0
234 2 33 4 0
235 2 34 4 0
236 2 35 4 0
237 1 36 4 0
238 1 37 4 0
239 1 38 4 0
240 1 39 4 0
241 1 40 4 0
242 1 41 4 0
243 1 42 4 0
244 1 43 4 0
245 1 44 4 0
246 1 45 4 0
247 1 46 4 0
248 1 47 4 0
249 1 48 4 0
250 1 49 4 0
251 1 0 5 0
252 1 1 5 0
253 1 2 5 0
254 1 3 5 0
255 1 4 5 0
256 1 5 5 0
257 1 6 5 0
258 1 7 5 0
259 2 8 5 0
260 2 9 5 0
261 2 10 5 0
262 2 11 5 0
263 2 12 5 0
264 2 13 5 0
265 1 14 5 0
266 1 15 5 0
267 1 16 5 0
268 1 17 5 0
269 1 18 5 0
270 2 19 5 0
271 2 20 5 0
272 2 21 5 0
273 2 22 5 0
274 2 23 5 0
275 1 24 5 0
276 1 25 5 0
277 2 26 5 0
278 2 27 5 0
279 2 28 5 0
280 2 29 5 0
281 2 30 5 0
282 2 31 5 0
283 2 32 5 0
284 2 33 5 0
285 2 34 5 0
286 2 35 5 0
287 1 36 5 0
288 1 37 5 0
289 1 38 5 0
290 1 39 5 0
291 1 40 5 0
292 1 41 5 0
293 1 42 5 0
294 1 43 5 0
295 1 44 5 0
296 1 45 5 0
297 1 46 5 0
298 1 47 5 0
299 1 48 5 0
300 1 49 5 0
301 1 0 6 0
302 1 1 6 0
303 1 2 6 0
304 1 3 6 0
305 1 4 6 0
306 1 5 6 0
307 1 6 6 0
308 1 7 6 0
309 2 8 6 0
310 2 9 6 0
311 2 10 6 0
312 2 11 6 0
313 2 12 6 0
314 2 13 6 0
315 1 14 6 0
316 1 15 6 0
317 1 16 6 0
318 1 17 6 0
319 2 18 6 0
320 2 19 6 0
321 2 20 6 0
322 2 21 6 0
323 2 22 6 0
324 2 23 6 0
325 2 24 6 0
326 1 25 6 0
327 2 26 6 0
328 2 27 6 0
329 2 28 6 0
330 2 29 6 0
331 2 30 6 0
332 2 31 6 0
333 2 32 6 0
334 2 33 6 0
335 2 34 6 0
336 1 35 6 0
337 1 36 6 0
338 1 37 6 0
339 1 38 6 0
340 1 39 6 0
341 1 40 6 0
342 1 41 6 0
343 1 42 6 0
344 1 43 6 0
345 1 44 6 0
346 1 45 6 0
347 1 46 6 0
348 1 47 6 0
349 1 48 6 0
350 1 49 6 0
351 1 0 7 0
352 1 1 7 0
353 1 2 7 0
354 1 3 7 0
355 1 4 7 0
356 1 5 7 0
357 1 6 7 0
358 1 7 7 0
359 1 8 7 0
360 2 9 7 0
361 2 10 7 0
362 2 11 7 0
363 2 12 7 0
364 1 13 7 0
365 1 14 7 0
366 1 15 7 0
367 1 16 7 0
368 2 17 7 0
369 2 18 7 0
370 2 19 7 0
371 2 20 7 0
372 2 21 7 0
373 2 22 7 0
374 2 23 7 0
375 2 24 7 0
376 2 25 7 0
377 1 26 7 0
378 2 27 7 0
379 2 28 7 0
380 2 29 7 0
381 2 30 7 0
382 2 31 7 0
383 2 32 7 0
384 2 33 7 0
385 1 34 7 0
386 1 35 7 0
387 1 36 7 0
388 1 37 7 0
389 1 38 7 0
390 1 39 7 0
391 1 40 7 0
392 1 41 7 0
393 1 42 7 0
394 1 43 7 0
395 1 44 7 0
396 1 45 7 0
397 1 46 7 0
398 1 47 7 0
399 1 48 7 0
400 1 49 7 0
401 1 0 8 0
402 1 1 8 0
403 1 2 8 0
404 1 3 8 0
405 1 4 8 0
406 1 5 8 0
407 1 6 8 0
408 1 7 8 0
409 1 8 8 0
410 1 9 8 0
411 1 10 8 0
412 1 11 8 0
413 1 12 8 0
414 1 13 8 0
415 1 14 8 0
416 1 15 8 0
417 1 16 8 0
418 2 17 8 0
419 2 18 8 0
420 2 19 8 0
421 2 20 8 0
422 2 21 8 0
423 2 22 8 0
424 2 23 8 0
425 2 24 8 0
426 2 25 8 0
427 1 26 8 0
428 1 27 8 0
429 2 28 8 0
430 2 29 8 0
431 2 30 8 0
432 2 31 8 0
433 2 32 8 0
434 1 33 8 0
435 1 34 8 0
436 1 35 8 0
437 1 36 8 0
438 1 37 8 0
439 1 38 8 0
440 1 39 8 0
441 1 40 8 0
442 1 41 8 0
443 1 42 8 0
444 1 43 8 0
445 2 44 8 0
446 2 45 8 0
447 2 46 8 0
448 2 47 8 0
449 1 48 8 0
450 1 49 8 0
451 1 0 9 0
452 1 1 9 0
453 1 2 9 0
454 1 3 9 0
455 1 4 9 0
456 1 5 9 0
457 1 6 9 0
458 1 7 9 0
459 1 8 9 0
460 1 9 9 0
461 1 10 9 0
462 1 11 9 0
463 1 12 9 0
464 1 13 9 0
465 1 14 9 0
466 1 15 9 0
467 2 16 9 0
468 2 17 9 0
469 2 18 9 0
470 2 19 9 0
471 2 20 9 0
472 2 21 9 0
473 2 22 9 0
474 2 23 9 0
475 2 24 9 0
476 2 25 9 0
477 1 26 9 0
478 1 27 9 0
479 1 28 9 0
480 1 29 9 0
481 1 30 9 0
482 1 31 9 0
483 1 32 9 0
484 1 33 9 0
485 1 34 9 0
486 1 35 9 0
487 1 36 9 0
488 1 37 9 0
489 1 38 9 0
490 1 39 9 0
491 1 40 9 0
492 1 41 9 0
493 1 42 9 0
494 2 43 9 0
495 2 44 9 0
496 2 45 9 0
497 2 46 9 0
498 2 47 9 0
499 2 48 9 0
500 1 49 9 0
501 1 0 10 0
502 1 1 10 0
503 1 2 10 0
504 1 3 10 0
505 1 4 10 0
506 1 5 10 0
507 1 6 10 0
508 1 7 10 0
509 1 8 10 0
510 1 9 10 0
511 1 10 10 0
512 1 11 10 0
513 1 12 10 0
514 1 13 10 0
515 1 14 10 0
516 1 15 10 0
517 1 16 10 0
518 2 17 10 0
519 2 18 10 0
520 2 19 10 0
521 2 20 10 0
522 2 21 10 0
523 2 22 10 0
524 2 23 10 0
525 2 24 10 0
526 2 25 10 0
527 1 26 10 0
528 1 27 10 0
529 1 28 10 0
530 1 29 10 0
531 1 30 10 0
532 1 31 10 0
533 1 32 10 0
534 1 33 10 0
535 1 34 10 0
536 1 35 10 0
537 1 36 10 0
538 1 37 10 0
539 1 38 10 0
540 1 39 10 0
541 1 40 10 0
542 1 41 10 0
543 2 42 10 0
544 2 43 10 0
545 2 44 10 0
546 2 45 10 0
547 2 46 10 0
548 2 47 10 0
549 2 48 10 0
550 2 49 10 0
551 1 0 11 0
552 1 1 11 0
553 1 2 11 0
554 1 3 11 0
555 1 4 11 0
556 1 5 11 0
557 1 6 11 0
558 1 7 11 0
559 1 8 11 0
560 1 9 11 0
561 1 10 11 0
562 1 11 11 0
563 1 12 11 0
564 1 13 11 0
565 1 14 11 0
566 1 15 11 0
567 1 16 11 0
568 2 17 11 0
569 2 18 11 0
570 2 19 11 0
571 2 20 11 0
572 2 21 11 0
573 2 22 11 0
574 2 23 11 0
575 2 24 11 0
576 2 25 11 0
577 1 26 11 0
578 1 27 11 0
579 1 28 11 0
580 1 29 11 0
581 1 30 11 0
582 1 31 11 0
583 1 32 11 0
584 1 33 11 0
585 1 34 11 0
586 1 35 11 0
587 1 36 11 0
588 1 37 11 0
589 1 38 11 0
590 1 39 11 0
591 1 40 11 0
592 1 41 11 0
593 2 42 11 0
594 2 43 11 0
595 2 44 11 0
596 2 45 11 0
597 2 46 11 0
598 2 47 11 0
599 2 48 11 0
600 2 49 11 0
601 1 0 12 0
602 1 1 12 0
603 1 2 12 0
604 1 3 12 0
605 1 4 12 0
606 1 5 12 0
607 1 6 12 0
608 1 7 12 0
609 1 8 12 0
610 1 9 12 0
611 1 10 12 0
612 1 11 12 0
613 1 12 12 0
614 1 13 12 0
615 1 14 12 0
616 1 15 12 0
617 1 16 12 0
618 2 17 12 0
619 2 18 12 0
620 2 19 12 0
621 2 20 12 0
622 2 21 12 0
623 2 22 12 0
624 2 23 12 0
625 2 24 12 0
626 1 25 12 0
627 1 26 12 0
628 1 27 12 0
629 1 28 12 0
630 1 29 12 0
631 1 30 12 0
632 1 31 12 0
633 1 32 12 0
634 1 33 12 0
635 1 34 12 0
636 1 35 12 0
637 1 36 12 0
638 1 37 12 0
639 1 38 12 0
640 1 39 12 0
641 1 40 12 0
642 1 41 12 0
643 2 42 12 0
644 2 43 12 0
645 2 44 12 0
646 2 45 12 0
647 2 46 12 0
648 2 47 12 0
649 2 48 12 0
650 2 49 12 0
651 1 0 13 0
652 1 1 13 0
653 1 2 13 0
654 1 3 13 0
655 1 4 13 0
656 1 5 13 0
657 1 6 13 0
658 1 7 13 0
659 1 8 13 0
660 1 9 13 0
661 1 10 13 0
662 1 11 13 0
663 1 12 13 0
664 1 13 13 0
665 1 14 13 0
666 1 15 13 0
667 1 16 13 0
668 1 17 13 0
669 2 18 13 0
670 2 19 13 0
671 2 20 13 0
672 2 21 13 0
673 2 22 13 0
674 2 23 13 0
675 1 24 13 0
676 1 25 13 0
677 1 26 13 0
678 1 27 13 0
679 1 28 13 0
680 1 29 13 0
681 1 30 13 0
682 1 31 13 0
683 1 32 13 0
684 1 33 13 0
685 1 34 13 0
686 1 35 13 0
687 1 36 13 0
688 1 37 13 0
689 1 38 13 0
690 1 39 13 0
691 1 40 13 0
692 1 41 13 0
693 2 42 13 0
694 2 43 13 0
695 2 44 13 0
696 2 45 13 0
697 2 46 13 0
698 2 47 13 0
699 2 48 13 0
700 2 49 13 0
701 1 0 14 0
702 1 1 14 0
703 1 2 14 0
704 1 3 14 0
705 1 4 14 0
706 1 5 14 0
707 1 6 14 0
708 1 7 14 0
709 1 8 14 0
710 1 9 14 0
711 1 10 14 0
712 1 11 14 0
713 1 12 14 0
714 1 13 14 0
715 1 14 14 0
716 1 15 14 0
717 1 16 14 0
718 1 17 14 0
719 1 18 14 0
720 1 19 14 0
721 1 20 14 0
722 2 21 14 0
723 1 22 14 0
724 1 23 14 0
725 1 24 14 0
726 1 25 14 0
727 1 26 14 0
728 1 27 14 0
729 1 28 14 0
730 1 29 14 0
731 1 30 14 0
732 1 31 14 0
733 1 32 14 0
734 1 33 14 0
735 1 34 14 0
736 1 35 14 0
737 1 36 14 0
738 1 37 14 0
739 1 38 14 0
740 1 39 14 0
741 1 40 14 0
742 1 41 14 0
743 2 42 14 0
744 2 43 14 0
745 2 44 14 0
746 2 45 14 0
747 2 46 14 0
748 2 47 14 0
749 2 48 14 0
750 2 49 14 0
751 1 0 15 0
752 1 1 15 0
753 1 2 15 0
754 1 3 15 0
755 1 4 15 0
756 1 5 15 0
757 1 6 15 0
758 1 7 15 0
759 1 8 15 0
760 1 9 15 0
761 1 10 15 0
762 1 11 15 0
763 1 12 15 0
764 1 13 15 0
765 1 14 15 0
766 1 15 15 0
767 1 16 15 0
768 1 17 15 0
769 1 18 15 0
770 1 19 15 0
771 1 20 15 0
772 1 21 15 0
773 1 22 15 0
774 1 23 15 0
775 1 24 15 0
776 1 25 15 0
777 1 26 15 0
778 1 27 15 0
779 1 28 15 0
780 1 29 15 0
781 1 30 15 0
782 1 31 15 0
783 1 32 15 0
784 1 33 15 0
785 1 34 15 0
786 1 35 15 0
787 1 36 15 0
788 1 37 15 0
789 1 38 15 0
790 1 39 15 0
791 1 40 15 0
792 1 41 15 0
793 1 42 15 0
794 2 43 15 0
795 2 44 15 0
796 2 45 15 0
797 2 46 15 0
798 2 47 15 0
799 2 48 15 0
800 1 49 15 0
801 1 0 16 0
802 1 1 16 0
803 1 2 16 0
804 1 3 16 0
805 1 4 16 0
806 1 5 16 0
807 1 6 16 0
808 1 7 16 0
809 1 8 16 0
810 1 9 16 0
811 1 10 16 0
812 1 11 16 0
813 1 12 16 0
814 1 13 16 0
815 1 14 16 0
816 1 15 16 0
817 1 16 16 0
818 1 17 16 0
819 1 18 16 0
820 1 19 16 0
821 1 20 16 0
822 1 21 16 0
823 1 22 16 0
824 1 23 16 0
825 1 24 16 0
826 1 25 16 0
827 1 26 16 0
828 1 27 16 0
829 1 28 16 0
830 1 29 16 0
831 1 30 16 0
832 1 31 16 0
833 1 32 16 0
834 1 33 16 0
835 1 34 16 0
836 1 35 16 0
837 1 36 16 0
838 1 37 16 0
839 1 38 16 0
840 1 39 16 0
841 1 40 16 0
842 1 41 16 0
843 1 42 16 0
844 1 43 16 0
845 1 44 16 0
846 2 45 16 0
847 2 46 16 0
848 1 47 16 0
849 1 48 16 0
850 1 49 16 0
851 1 0 17 0
852 1 1 17 0
853 1 2 17 0
854 1 3 17 0
855 1 4 17 0
856 1 5 17 0
857 1 6 17 0
858 1 7 17 0
859 1 8 17 0
860 1 9 17 0
861 1 10 17 0
862 1 11 17 0
863 1 12 17 0
864 1 13 17 0
865 1 14 17 0
866 1 15 17 0
867 1 16 17 0
868 1 17 17 0
869 1 18 17 0
870 1 19 17 0
871 1 20 17 0
872 1 21 17 0
873 1 22 17 0
874 1 23 17 0
875 1 24 17 0
876 1 25 17 0
877 1 26 17 0
878 1 27 17 0
879 1 28 17 0
880 1 29 17 0
881 1 30 17 0
882 1 31 17 0
883 1 32 17 0
884 1 33 17 0
885 1 34 17 0
886 1 35 17 0
887 1 36 17 0
888 1 37 17 0
889 1 38 17 0
890 1 39 17 0
891 1 40 17 0
892 1 41 17 0
893 1 42 17 0
894 1 43 17 0
895 1 44 17 0
896 1 45 17 0
897 1 46 17 0
898 1 47 17 0
899 1 48 17 0
900 1 49 17 0
901 1 0 18 0
902 1 1 18 0
903 1 2 18 0
904 1 3 18 0
905 1 4 18 0
906 1 5 18 0
907 1 6 18 0
908 1 7 18 0
909 1 8 18 0
910 1 9 18 0
911 1 10 18 0
912 1 11 18 0
913 1 12 18 0
914 1 13 18 0
915 1 14 18 0
916 1 15 18 0
917 1 16 18 0
918 1 17 18 0
919 1 18 18 0
920 1 19 18 0
921 1 20 18 0
922 1 21 18 0
923 1 22 18 0
924 1 23 18 0
925 1 24 18 0
926 1 25 18 0
927 1 26 18 0
928 1 27 18 0
929 1 28 18 0
930 1 29 18 0
931 1 30 18 0
932 1 31 18 0
933 1 32 18 0
934 1 33 18 0
935 1 34 18 0
936 1 35 18 0
937 1 36 18 0
938 1 37 18 0
939 1 38 18 0
940 1 39 18 0
941 1 40 18 0
942 1 41 18 0
943 1 42 18 0
944 1 43 18 0
945 1 44 18 0
946 1 45 18 0
947 1 46 18 0
948 1 47 18 0
949 1 48 18 0
950 1 49 18 0
951 1 0 19 0
952 1 1 19 0
953 1 2 19 0
954 1 3 19 0
955 1 4 19 0
956 1 5 19 0
957 1 6 19 0
958 1 7 19 0
959 1 8 19 0
960 1 9 19 0
961 1 10 19 0
962 1 11 19 0
963 1 12 19 0
964 1 13 19 0
965 1 14 19 0
966 1 15 19 0
967 1 16 19 0
968 1 17 19 0
969 1 18 19 0
970 1 19 19 0
971 1 20 19 0
972 1 21 19 0
973 1 22 19 0
974 1 23 19 0
975 1 24 19 0
976 1 25 19 0
977 1 26 19 0
978 1 27 19 0
979 1 28 19 0
980 1 29 19 0
981 1 30 19 0
982 1 31 19 0
983 1 32 19 0
984 1 33 19 0
985 1 34 19 0
986 1 35 19 0
987 1 36 19 0
988 1 37 19 0
989 1 38 19 0
990 1 39 19 0
991 1 40 19 0
992 2 41 19 0
993 2 42 19 0
994 1 43 19 0
995 1 44 19 0
996 1 45 19 0
997 1 46 19 0
998 1 47 19 0
999 1 48 19 0
1000 1 49 19 0
1001 1 0 20 0
1002 1 1 20 0
1003 1 2 20 0
1004 1 3 20 0
1005 1 4 20 0
1006 1 5 20 0
1007 1 6 20 0
1008 1 7 20 0
1009 1 8 20 0
1010 1 9 20 0
1011 1 10 20 0
1012 1 11 20 0
1013 1 12 20 0
1014 1 13 20 0
1015 1 14 20 0
1016 1 15 20 0
1017 1 16 20 0
1018 1 17 20 0
1019 1 18 20 0
1020 1 19 20 0
1021 1 20 20 0
1022 1 21 20 0
1023 1 22 20 0
1024 1 23 20 0
1025 1 24 20 0
1026 1 25 20 0
1027 1 26 20 0
1028 1 27 20 0
1029 1 28 20 0
1030 1 29 20 0
1031 1 30 20 0
1032 1 31 20 0
1033 1 32 20 0
1034 1 33 20 0
1035 1 34 20 0
1036 1 35 20 0
1037 1 36 20 0
1038 1 37 20 0
1039 1 38 20 0
1040 1 39 20 0
1041 2 40 20 0
1042 2 41 20 0
1043 2 42 20 0
1044 2 43 20 0
1045 1 44 20 0
1046 1 45 20 0
1047 1 46 20 0
1048 1 47 20 0
1049 1 48 20 0
1050 1 49 20 0
1051 1 0 21 0
1052 1 1 21 0
1053 1 2 21 0
1054 1 3 21 0
1055 1 4 21 0
1056 1 5 21 0
1057 1 6 21 0
1058 1 7 21 0
1059 1 8 21 0
1060 1 9 21 0
1061 1 10 21 0
1062 1 11 21 0
1063 1 12 21 0
1064 1 13 21 0
1065 1 14 21 0
1066 1 15 21 0
1067 1 16 21 0
1068 1 17 21 0
1069 1 18 21 0
1070 1 19 21 0
1071 1 20 21 0
1072 1 21 21 0
1073 1 22 21 0
1074 1 23 21 0
1075 1 24 21 0
1076 1 25 21 0
1077 1 26 21 0
1078 1 27 21 0
1079 1 28 21 0
1080 1 29 21 0
1081 1 30 21 0
1082 1 31 21 0
1083 1 32 21 0
1084 1 33 21 0
1085 1 34 21 0
1086 1 35 21 0
1087 1 36 21 0
1088 1 37 21 0
1089 1 38 21 0
1090 2 39 21 0
1091 2 40 21 0
1092 2 41 21 0
1093 2 42 21 0
1094 2 43 21 0
1095 1 44 21 0
1096 1 45 21 0
1097 1 46 21 0
1098 1 47 21 0
1099 1 48 21 0
1100 1 49 21 0
1101 1 0 22 0
1102 1 1 22 0
1103 1 2 22 0
1104 1 3 22 0
1105 1 4 22 0
1106 1 5 22 0
1107 1 6 22 0
1108 1 7 22 0
1109 1 8 22 0
1110 1 9 22 0
1111 1 10 22 0
1112 1 11 22 0
1113 1 12 22 0
1114 1 13 22 0
1115 1 14 22 0
1116 1 15 22 0
1117 1 16 22 0
1118 1 17 22 0
1119 1 18 22 0
1120 1 19 22 0
1121 1 20 22 0
1122 1 21 22 0
1123 1 22 22 0
1124 1 23 22 0
1125 1 24 22 0
1126 1 25 22 0
1127 1 26 22 0
1128 1 27 22 0
1129 1 28 22 0
1130 1 29 22 0
1131 1 30 22 0
1132 1 31 22 0
1133 1 32 22 0
1134 1 33 22 0
1135 1 34 22 0
1136 1 35 22 0
1137 1 36 22 0
1138 1 37 22 0
1139 1 38 22 0
1140 2 39 22 0
1141 2 40 22 0
1142 2 41 22 0
1143 2 42 22 0
1144 2 43 22 0
1145 1 44 22 0
1146 1 45 22 0
1147 1 46 22 0
1148 1 47 22 0
1149 1 48 22 0
1150 1 49 22 0
1151 1 0 23 0
1152 1 1 23 0
1153 1 2 23 0
1154 1 3 23 0
1155 1 4 23 0
1156 1 5 23 0
1157 1 6 23 0
1158 1 7 23 0
1159 1 8 23 0
1160 1 9 23 0
1161 1 10 23 0
1162 1 11 23 0
1163 1 12 23 0
1164 1 13 23 0
1165 1 14 23 0
1166 1 15 23 0
1167 1 16 23 0
1168 1 17 23 0
1169 1 18 23 0
1170 1 19 23 0
1171 1 20 23 0
1172 1 21 23 0
1173 1 22 23 0
1174 1 23 23 0
1175 1 24 23 0
1176 1 25 23 0
1177 1 26 23 0
1178 1 27 23 0
1179 1 28 23 0
1180 1 29 23 0
1181 1 30 23 0
1182 1 31 23 0
1183 1 32 23 0
1184 1 33 23 0
1185 1 34 23 0
1186 1 35 23 0
1187 1 36 23 0
1188 1 37 23 0
1189 1 38 23 0
1190 2 39 23 0
1191 2 40 23 0
1192 2 41 23 0
1193 2 42 23 0
1194 2 43 23 0
1195 1 44 23 0
1196 1 45 23 0
1197 1 46 23 0
1198 1 47 23 0
1199 1 48 23 0
1200 1 49 23 0
1201 1 0 24 0
1202 1 1 24 0
1203 1 2 24 0
1204 1 3 24 0
1205 1 4 24 0
1206 1 5 24 0
1207 1 6 24 0
1208 1 7 24 0
1209 1 8 24 0
1210 1 9 24 0
1211 1 10 24 0
1212 1 11 24 0
1213 1 12 24 0
1214 1 13 24 0
1215 1 14 24 0
1216 1 15 24 0
1217 1 16 24 0
1218 1 17 24 0
1219 1 18 24 0
1220 1 19 24 0
1221 1 20 24 0
1222 1 21 24 0
1223 1 22 24 0
1224 1 23 24 0
1225 1 24 24 0
1226 1 25 24 0
1227 1 26 24 0
1228 1 27 24 0
1229 1 28 24 0
1230 1 29 24 0
1231 1 30 24 0
1232 1 31 24 0
1233 1 32 24 0
1234 1 33 24 0
1235 1 34 24 0
1236 1 35 24 0
1237 1 36 24 0
1238 1 37 24 0
1239 1 38 24 0
1240 1 39 24 0
1241 2 40 24 0
1242 2 41 24 0
1243 2 42 24 0
1244 1 43 24 0
1245 1 44 24 0
1246 1 45 24 0
1247 1 46 24 0
1248 1 47 24 0
1249 1 48 24 0
1250 1 49 24 0
1251 1 0 25 0
1252 1 1 25 0
1253 1 2 25 0
1254 1 3 25 0
1255 1 4 25 0
1256 1 5 25 0
1257 1 6 25 0
1258 1 7 25 0
1259 1 8 25 0
1260 1 9 25 0
1261 1 10 25 0
1262 1 11 25 0
1263 1 12 25 0
1264 1 13 25 0
1265 1 14 25 0
1266 1 15 25 0
1267 1 16 25 0
1268 1 17 25 0
1269 1 18 25 0
1270 1 19 25 0
1271 1 20 25 0
1272 1 21 25 0
1273 1 22 25 0
1274 1 23 25 0
1275 1 24 25 0
1276 1 25 25 0
1277 1 26 25 0
1278 1 27 25 0
1279 1 28 25 0
1280 1 29 25 0
1281 1 30 25 0
1282 1 31 25 0
1283 1 32 25 0
1284 1 33 25 0
1285 1 34 25 0
1286 1 35 25 0
1287 1 36 25 0
1288 1 37 25 0
1289 1 38 25 0
1290 1 39 25 0
1291 1 40 25 0
1292 1 41 25 0
1293 1 42 25 0
1294 1 43 25 0
1295 1 44 25 0
1296 1 45 25 0
1297 1 46 25 0
1298 1 47 25 0
1299 1 48 25 0
1300 1 49 25 0
1301 1 0 26 0
1302 1 1 26 0
1303 1 2 26 0
1304 1 3 26 0
1305 1 4 26 0
1306 1 5 26 0
1307 1 6 26 0
1308 1 7 26 0
1309 1 8 26 0
1310 1 9 26 0
1311 1 10 26 0
1312 1 11 26 0
1313 1 12 26 0
1314 1 13 26 0
1315 1 14 26 0
1316 1 15 26 0
1317 1 16 26 0
1318 1 17 26 0
1319 1 18 26 0
1320 1 19 26 0
1321 1 20 26 0
1322 1 21 26 0
1323 1 22 26 0
1324 1 23 26 0
1325 1 24 26 0
1326 1 25 26 0
1327 1 26 26 0
1328 1 27 26 0
1329 1 28 26 0
1330 1 29 26 0
1331 1 30 26 0
1332 1 31 26 0
1333 1 32 26 0
1334 1 33 26 0
1335 1 34 26 0
1336 1 35 26 0
1337 1 36 26 0
1338 1 37 26 0
1339 1 38 26 0
1340 1 39 26 0
1341 1 40 26 0
1342 1 41 26 0
1343 1 42 26 0
1344 1 43 26 0
1345 1 44 26 0
1346 1 45 26 0
1347 1 46 26 0
1348 1 47 26 0
1349 1 48 26 0
1350 1 49 26 0
1351 1 0 27 0
1352 1 1 27 0
1353 1 2 27 0
1354 1 3 27 0
1355 1 4 27 0
1356 1 5 27 0
1357 1 6 27 0
1358 1 7 27 0
1359 1 8 27 0
1360 1 9 27 0
1361 1 10 27 0
1362 1 11 27 0
1363 1 12 27 0
1364 1 13 27 0
1365 1 14 27 0
1366 1 15 27 0
1367 1 16 27 0
1368 1 17 27 0
1369 1 18 27 0
1370 1 19 27 0
1371 1 20 27 0
1372 1 21 27 0
1373 1 22 27 0
1374 1 23 27 0
1375 1 24 27 0
1376 1 25 27 0
1377 1 26 27 0
1378 1 27 27 0
1379 1 28 27 0
1380 1 29 27 0
1381 1 30 27 0
1382 1 31 27 0
1383 1 32 27 0
1384 1 33 27 0
1385 1 34 27 0
1386 1 35 27 0
1387 1 36 27 0
1388 1 37 27 0
1389 1 38 27 0
1390 1 39 27 0
1391 1 40 27 0
1392 1 41 27 0
1393 1 42 27 0
1394 1 43 27 0
1395 1 44 27 0
1396 1 45 27 0
1397 1 46 27 0
1398 1 47 27 0
1399 1 48 27 0
1400 1 49 27 0
1401 1 0 28 0
1402 1 1 28 0
1403 1 2 28 0
1404 1 3 28 0
1405 1 4 28 0
1406 1 5 28 0
1407 1 6 28 0
1408 1 7 28 0
1409 1 8 28 0
1410 1 9 28 0
1411 1 10 28 0
1412 1 11 28 0
1413 1 12 28 0
1414 1 13 28 0
1415 1 14 28 0
1416 1 15 28 0
1417 1 16 28 0
1418 1 17 28 0
1419 1 18 28 0
1420 1 19 28 0
1421 1 20 28 0
1422 1 21 28 0
1423 1 22 28 0
1424 1 23 28 0
1425 1 24 28 0
1426 1 25 28 0
1427 1 26 28 0
1428 1 27 28 0
1429 1 28 28 0
1430 1 29 28 0
1431 1 30 28 0
1432 1 31 28 0
1433 1 32 28 0
1434 1 33 28 0
1435 1 34 28 0
1436 1 35 28 0
1437 1 36 28 0
1438 1 37 28 0
1439 1 38 28 0
1440 1 39 28 0
1441 1 40 28 0
1442 1 41 28 0
1443 2 42 28 0
1444 2 43 28 0
1445 2 44 28 0
1446 2 45 28 0
1447 2 46 28 0
1448 1 47 28 0
1449 1 48 28 0
1450 1 49 28 0
1451 1 0 29 0
1452 1 1 29 0
1453 1 2 29 0
1454 1 3 29 0
1455 1 4 29 0
1456 1 5 29 0
1457 1 6 29 0
1458 1 7 29 0
1459 1 8 29 0
1460 1 9 29 0
1461 1 10 29 0
1462 1 11 29 0
1463 1 12 29 0
1464 1 13 29 0
1465 1 14 29 0
1466 1 15 29 0
1467 1 16 29 0
1468 1 17 29 0
1469 1 18 29 0
1470 1 19 29 0
1471 1 20 29 0
1472 1 21 29 0
1473 1 22 29 0
1474 1 23 29 0
1475 1 24 29 0
1476 1 25 29 0
1477 1 26 29 0
1478 1 27 29 0
1479 1 28 29 0
1480 1 29 29 0
1481 1 30 29 0
1482 1 31 29 0
1483 1 32 29 0
1484 1 33 29 0
1485 1 34 29 0
1486 1 35 29 0
1487 1 36 29 0
1488 1 37 29 0
1489 1 38 29 0
1490 1 39 29 0
1491 1 40 29 0
1492 2 41 29 0
1493 2 42 29 0
1494 2 43 29 0
1495 2 44 29 0
1496 2 45 29 0
1497 2 46 29 0
1498 2 47 29 0
1499 1 48 29 0
1500 1 49 29 0
1501 1 0 30 0
1502 1 1 30 0
1503 1 2 30 0
1504 1 3 30 0
1505 1 4 30 0
1506 1 5 30 0
1507 1 6 30 0
1508 1 7 30 0
1509 1 8 30 0
1510 1 9 30 0
1511 1 10 30 0
1512 1 11 30 0
1513 1 12 30 0
1514 1 13 30 0
1515 1 14 30 0
1516 1 15 30 0
1517 1 16 30 0
1518 1 17 30 0
1519 1 18 30 0
1520 1 19 30 0
1521 1 20 30 0
1522 1 21 30 0
1523 1 22 30 0
1524 1 23 30 0
1525 1 24 30 0
1526 1 25 30 0
1527 1 26 30 0
1528 1 27 30 0
1529 1 28 30 0
1530 1 29 30 0
1531 1 30 30 0
1532 1 31 30 0
1533 1 32 30 0
1534 1 33 30 0
1535 1 34 30 0
1536 1 35 30 0
1537 1 36 30 0
1538 1 37 30 0
1539 1 38 30 0
1540 1 39 30 0
1541 2 40 30 0
1542 2 41 30 0
1543 2 42 30 0
1544 2 43 30 0
1545 2 44 30 0
1546 2 45 30 0
1547 2 46 30 0
1548 2 47 30 0
1549 1 48 30 0
1550 1 49 30 0
1551 1 0 31 0
1552 1 1 31 0
1553 1 2 31 0
1554 1 3 31 0
1555 1 4 31 0
1556 1 5 31 0
1557 1 6 31 0
1558 1 7 31 0
1559 1 8 31 0
1560 1 9 31 0
1561 1 10 31 0
1562 1 11 31 0
1563 1 12 31 0
1564 1 13 31 0
1565 1 14 31 0
1566 1 15 31 0
1567 1 16 31 0
1568 1 17 31 0
1569 1 18 31 0
1570 1 19 31 0
1571 1 20 31 0
1572 1 21 31 0
1573 1 22 31 0
1574 1 23 31 0
1575 1 24 31 0
1576 1 25 31 0
1577 1 26 31 0
1578 1 27 31 0
1579 1 28 31 0
1580 1 29 31 0
1581 1 30 31 0
1582 1 31 31 0
1583 1 32 31 0
1584 1 33 31 0
1585 1 34 31 0
1586 1 35 31 0
1587 1 36 31 0
1588 1 37 31 0
1589 1 38 31 0
1590 1 39 31 0
1591 2 40 31 0
1592 2 41 31 0
1593 2 42 31 0
1594 2 43 31 0
1595 2 44 31 0
1596 2 45 31 0
1597 2 46 31 0
1598 2 47 31 0
1599 2 48 31 0
1600 1 49 31 0
1601 1 0 32 0
1602 1 1 32 0
1603 1 2 32 0
1604 1 3 32 0
1605 1 4 32 0
1606 1 5 32 0
1607 1 6 32 0
1608 1 7 32 0
1609 1 8 32 0
1610 1 9 32 0
1611 1 10 32 0
1612 1 11 32 0
1613 1 12 32 0
1614 1 13 32 0
1615 1 14 32 0
1616 1 15 32 0
1617 1 16 32 0
1618 1 17 32 0
1619 1 18 32 0
1620 1 19 32 0
1621 1 20 32 0
1622 1 21 32 0
1623 1 22 32 0
1624 1 23 32 0
1625 1 24 32 0
1626 1 25 32 0
1627 1 26 32 0
1628 1 27 32 0
1629 1 28 32 0
1630 1 29 32 0
1631 1 30 32 0
1632 1 31 32 0
1633 1 32 32 0
1634 1 33 32 0
1635 1 34 32 0
1636 1 35 32 0
1637 1 36 32 0
1638 1 37 32 0
1639 1 38 32 0
1640 2 39 32 0
1641 2 40 32 0
1642 2 41 32 0
1643 2 42 32 0
1644 2 43 32 0
1645 2 44 32 0
1646 2 45 32 0
1647 2 46 32 0
1648 2 47 32 0
1649 2 48 32 0
1650 1 49 32 0
1651 1 0 33 0
1652 1 1 33 0
1653 1 2 33 0
1654 1 3 33 0
1655 1 4 33 0
1656 1 5 33 0
1657 1 6 33 0
1658 1 7 33 0
1659 1 8 33 0
1660 1 9 33 0
1661 1 10 33 0
1662 1 11 33 0
1663 1 12 33 0
1664 1 13 33 0
1665 1 14 33 0
1666 1 15 33 0
1667 1 16 33 0
1668 1 17 33 0
1669 1 18 33 0
1670 1 19 33 0
1671 1 20 33 0
1672 1 21 33 0
1673 1 22 33 0
1674 1 23 33 0
1675 1 24 33 0
1676 1 25 33 0
1677 1 26 33 0
1678 1 27 33 0
1679 1 28 33 0
1680 1 29 33 0
1681 1 30 33 0
1682 1 31 33 0
1683 1 32 33 0
1684 1 33 33 0
1685 1 34 33 0
1686 1 35 33 0
1687 1 36 33 0
1688 1 37 33 0
1689 1 38 33 0
1690 2 39 33 0
1691 2 40 33 0
1692 2 41 33 0
1693 2 42 33 0
1694 2 43 33 0
1695 2 44 33 0
1696 2 45 33 0
1697 2 46 33 0
1698 2 47 33 0
1699 2 48 33 0
1700 1 49 33 0
1701 1 0 34 0
1702 1 1 34 0
1703 1 2 34 0
1704 1 3 34 0
1705 1 4 34 0
1706 1 5 34 0
1707 1 6 34 0
1708 1 7 34 0
1709 1 8 34 0
1710 1 9 34 0
1711 1 10 34 0
1712 1 11 34 0
1713 1 12 34 0
1714 1 13 34 0
1715 1 14 34 0
1716 1 15 34 0
1717 1 16 34 0
1718 1 17 34 0
1719 1 18 34 0
1720 1 19 34 0
1721 1 20 34 0
1722 1 21 34 0
1723 1 22 34 0
1724 1 23 34 0
1725 1 24 34 0
1726 1 25 34 0
1727 1 26 34 0
1728 1 27 34 0
1729 1 28 34 0
1730 1 29 34 0
1731 1 30 34 0
1732 1 31 34 0
1733 1 32 34 0
1734 1 33 34 0
1735 1 34 34 0
1736 1 35 34 0
1737 1 36 34 0
1738 1 37 34 0
1739 1 38 34 0
1740 1 39 34 0
1741 2 40 34 0
1742 2 41 34 0
1743 2 42 34 0
1744 2 43 34 0
1745 2 44 34 0
1746 2 45 34 0
1747 2 46 34 0
1748 2 47 34 0
1749 2 48 34 0
1750 1 49 34 0
1751 1 0 35 0
1752 1 1 35 0
1753 1 2 35 0
1754 1 3 35 0
1755 1 4 35 0
1756 1 5 35 0
1757 1 6 35 0
1758 1 7 35 0
1759 1 8 35 0
1760 1 9 35 0
1761 1 10 35 0
1762 1 11 35 0
1763 1 12 35 0
1764 1 13 35 0
1765 1 14 35 0
1766 1 15 35 0
1767 1 16 35 0
1768 1 17 35 0
1769 1 18 35 0
1770 1 19 35 0
1771 1 20 35 0
1772 1 21 35 0
1773 1 22 35 0
1774 1 23 35 0
1775 1 24 35 0
1776 1 25 35 0
1777 1 26 35 0
1778 1 27 35 0
1779 1 28 35 0
1780 1 29 35 0
1781 1 30 35 0
1782 1 31 35 0
1783 1 32 35 0
1784 1 33 35 0
1785 1 34 35 0
1786 1 35 35 0
1787 1 36 35 0
1788 1 37 35 0
1789 1 38 35 0
1790 1 39 35 0
1791 2 40 35 0
1792 2 41 35 0
1793 2 42 35 0
1794 2 43 35 0
1795 2 44 35 0
1796 2 45 35 0
1797 2 46 35 0
1798 2 47 35 0
1799 1 48 35 0
1800 1 49 35 0
1801 1 0 36 0
1802 2 1 36 0
1803 1 2 36 0
1804 1 3 36 0
1805 1 4 36 0
1806 1 5 36 0
1807 1 6 36 0
1808 1 7 36 0
1809 1 8 36 0
1810 1 9 36 0
1811 1 10 36 0
1812 1 11 36 0
1813 1 12 36 0
1814 1 13 36 0
1815 1 14 36 0
1816 1 15 36 0
1817 1 16 36 0
1818 1 17 36 0
1819 1 18 36 0
1820 1 19 36 0
1821 1 20 36 0
1822 1 21 36 0
1823 1 22 36 0
1824 1 23 36 0
1825 1 24 36 0
1826 1 25 36 0
1827 1 26 36 0
1828 1 27 36 0
1829 1 28 36 0
1830 1 29 36 0
1831 1 30 36 0
1832 1 31 36 0
1833 1 32 36 0
1834 1 33 36 0
1835 1 34 36 0
1836 1 35 36 0
1837 1 36 36 0
1838 1 37 36 0
1839 1 38 36 0
1840 1 39 36 0
1841 1 40 36 0
1842 2 41 36 0
1843 2 42 36 0
1844 2 43 36 0
1845 2 44 36 0
1846 2 45 36 0
1847 2 46 36 0
1848 1 47 36 0
1849 1 48 36 0
1850 2 49 36 0
1851 1 0 37 0
1852 2 1 37 0
1853 2 2 37 0
1854 2 3 37 0
1855 1 4 37 0
1856 1 5 37 0
1857 1 6 37 0
1858 1 7 37 0
1859 1 8 37 0
1860 1 9 37 0
1861 1 10 37 0
1862 1 11 37 0
1863 1 12 37 0
1864 1 13 37 0
1865 1 14 37 0
1866 1 15 37 0
1867 1 16 37 0
1868 1 17 37 0
1869 1 18 37 0
1870 1 19 37 0
1871 1 20 37 0
1872 1 21 37 0
1873 1 22 37 0
1874 1 23 37 0
1875 1 24 37 0
1876 1 25 37 0
1877 1 26 37 0
1878 1 27 37 0
1879 1 28 37 0
1880 1 29 37 0
1881 1 30 37 0
1882 1 31 37 0
1883 1 32 37 0
1884 1 33 37 0
1885 2 34 37 0
1886 2 35 37 0
1887 2 36 37 0
1888 2 37 37 0
1889 2 38 37 0
1890 1 39 37 0
1891 1 40 37 0
1892 1 41 37 0
1893 1 42 37 0
1894 1 43 37 0
1895 1 44 37 0
1896 1 45 37 0
1897 1 46 37 0
1898 2 47 37 0
1899 2 48 37 0
1900 2 49 37 0
1901 1 0 38 0
1902 2 1 38 0
1903 2 2 38 0
1904 2 3 38 0
1905 1 4 38 0
1906 1 5 38 0
1907 1 6 38 0
1908 1 7 38 0
1909 1 8 38 0
1910 1 9 38 0
1911 1 10 38 0
1912 1 11 38 0
1913 1 12 38 0
1914 1 13 38 0
1915 1 14 38 0
1916 1 15 38 0
1917 1 16 38 0
1918 1 17 38 0
1919 1 18 38 0
1920 1 19 38 0
1921 1 20 38 0
1922 1 21 38 0
1923 1 22 38 0
1924 1 23 38 0
1925 1 24 38 0
1926 1 25 38 0
1927 1 26 38 0
1928 1 27 38 0
1929 1 28 38 0
1930 1 29 38 0
1931 1 30 38 0
1932 1 31 38 0
1933 1 32 38 0
1934 2 33 38 0
1935 2 34 38 0
1936 2 35 38 0
1937 2 36 38 0
1938 2 37 38 0
1939 2 38 38 0
1940 2 39 38 0
1941 1 40 38 0
1942 1 41 38 0
1943 1 42 38 0
1944 1 43 38 0
1945 1 44 38 0
1946 1 45 38 0
1947 2 46 38 0
1948 2 47 38 0
1949 2 48 38 0
1950 2 49 38 0
1951 1 0 39 0
1952 2 1 39 0
1953 2 2 39 0
1954 2 3 39 0
1955 2 4 39 0
1956 1 5 39 0
1957 1 6 39 0
1958 1 7 39 0
1959 1 8 39 0
1960 1 9 39 0
1961 1 10 39 0
1962 1 11 39 0
1963 1 12 39 0
1964 1 13 39 0
1965 1 14 39 0
1966 1 15 39 0
1967 1 16 39 0
1968 1 17 39 0
1969 1 18 39 0
1970 1 19 39 0
1971 1 20 39 0
1972 1 21 39 0
1973 1 22 39 0
1974 1 23 39 0
1975 1 24 39 0
1976 1 25 39 0
1977 1 26 39 0
1978 1 27 39 0
1979 1 28 39 0
1980 1 29 39 0
1981 1 30 39 0
1982 1 31 39 0
1983 2 32 39 0
1984 2 33 39 0
1985 2 34 39 0
1986 2 35 39 0
1987 2 36 39 0
1988 2 37 39 0
1989 2 38 39 0
1990 2 39 39 0
1991 1 40 39 0
1992 1 41 39 0
1993 1 42 39 0
1994 1 43 39 0
1995 1 44 39 0
1996 2 45 39 0
1997 2 46 39 0
1998 2 47 39 0
1999 2 48 39 0
2000 2 49 39 0
2001 1 0 40 0
2002 2 1 40 0
2003 2 2 40 0
2004 2 3 40 0
2005 2 4 40 0
2006 1 5 40 0
2007 1 6 40 0
2008 1 7 40 0
2009 1 8 40 0
2010 1 9 40 0
2011 1 10 40 0
2012 1 11 40 0
2013 1 12 40 0
2014 1 13 40 0
2015 1 14 40 0
2016 1 15 40 0
2017 1 16 40 0
2018 1 17 40 0
2019 1 18 40 0
2020 1 19 40 0
2021 1 20 40 0
2022 1 21 40 0
2023 1 22 40 0
2024 1 23 40 0
2025 1 24 40 0
2026 1 25 40 0
2027 1 26 40 0
2028 1 27 40 0
2029 1 28 40 0
2030 1 29 40 0
2031 1 30 40 0
2032 1 31 40 0
2033 2 32 40 0
2034 2 33 40 0
2035 2 34 40 0
2036 2 35 40 0
2037 2 36 40 0
2038 2 37 40 0
2039 2 38 40 0
2040 2 39 40 0
2041 2 40 40 0
2042 1 41 40 0
2043 1 42 40 0
2044 1 43 40 0
2045 1 44 40 0
2046 2 45 40 0
2047 2 46 40 0
2048 2 47 40 0
2049 2 48 40 0
2050 2 49 40 0
2051 1 0 41 0
2052 2 1 41 0
2053 2 2 41 0
2054 2 3 41 0
2055 2 4 41 0
2056 2 5 41 0
2057 1 6 41 0
2058 1 7 41 0
2059 1 8 41 0
2060 1 9 41 0
2061 1 10 41 0
2062 1 11 41 0
2063 1 12 41 0
2064 1 13 41 0
2065 1 14 41 0
2066 1 15 41 0
2067 1 16 41 0
2068 1 17 41 0
2069 1 18 41 0
2070 1 19 41 0
2071 1 20 41 0
2072 1 21 41 0
2073 1 22 41 0
2074 1 23 41 0
2075 1 24 41 0
2076 1 25 41 0
2077 1 26 41 0
2078 1 27 41 0
2079 1 28 41 0
2080 1 29 41 0
2081 1 30 41 0
2082 1 31 41 0
2083 2 32 41 0
2084 2 33 41 0
2085 2 34 41 0
2086 2 35 41 0
2087 2 36 41 0
2088 2 37 41 0
2089 2 38 41 0
2090 2 39 41 0
2091 2 40 41 0
2092 1 41 41 0
2093 1 42 41 0
2094 1 43 41 0
2095 1 44 41 0
2096 2 45 41 0
2097 2 46 41 0
2098 2 47 41 0
2099 2 48 41 0
2100 2 49 41 0
2101 1 0 42 0
2102 2 1 42 0
2103 2 2 42 0
2104 2 3 42 0
2105 2 4 42 0
2106 1 5 42 0
2107 1 6 42 0
2108 1 7 42 0
2109 1 8 42 0
2110 1 9 42 0
2111 1 10 42 0
2112 1 11 42 0
2113 1 12 42 0
2114 1 13 42 0
2115 1 14 42 0
2116 1 15 42 0
2117 1 16 42 0
2118 1 17 42 0
2119 1 18 42 0
2120 2 19 42 0
2121 2 20 42 0
2122 2 21 42 0
2123 2 22 42 0
2124 2 23 42 0
2125 1 24 42 0
2126 1 25 42 0
2127 1 26 42 0
2128 1 27 42 0
2129 1 28 42 0