
2500 atoms

2 atom types

0 50 xlo xhi
0 1 ylo yhi
0 50 zlo zhi

Masses

1 1
2 2

Atoms

1 1 0 0 0
2 1 1 0 0
3 1 2 0 0
4 1 3 0 0
5 1 4 0 0
6 1 5 0 0
7 1 6 0 0
8 1 7 0 0
9 1 8 0 0
10 1 9 0 0
11 1 10 0 0
12 1 11 0 0
13 1 12 0 0
14 1 13 0 0
15 1 14 0 0
16 1 15 0 0
17 1 16 0 0
18 1 17 0 0
19 1 18 0 0
20 1 19 0 0
21 1 20 0 0
22 1 21 0 0
23 1 22 0 0
24 1 23 0 0
25 1 24 0 0
26 1 25 0 0
27 1 26 0 0
28 2 27 0 0
29 2 28 0 0
30 2 29 0 0
31 2 30 0 0
32 2 31 0 0
33 2 32 0 0
34 2 33 0 0
35 2 34 0 0
36 1 35 0 0
37 1 36 0 0
38 1 37 0 0
39 1 38 0 0
40 1 39 0 0
41 1 40 0 0
42 2 41 0 0
43 2 42 0 0
44 1 43 0 0
45 1 44 0 0
46 1 45 0 0
47 1 46 0 0
48 1 47 0 0
49 1 48 0 0
50 1 49 0 0
51 2 0 0 1
52 2 1 0 1
53 2 2 0 1
54 2 3 0 1
55 2 4 0 1
56 1 5 0 1
57 1 6 0 1
58 1 7 0 1
59 1 8 0 1
60 1 9 0 1
61 1 10 0 1
62 1 11 0 1
63 1 12 0 1
64 1 13 0 1
65 1 14 0 1
66 1 15 0 1
67 1 16 0 1
68 1 17 0 1
69 1 18 0 1
70 1 19 0 1
71 1 20 0 1
72 1 21 0 1
73 1 22 0 1
74 1 23 0 1
75 1 24 0 1
76 1 25 0 1
77 1 26 0 1
78 2 27 0 1
79 2 28 0 1
80 2 29 0 1
81 2 30 0 1
82 2 31 0 1
83 2 32 0 1
84 2 33 0 1
85 2 34 0 1
86 1 35 0 1
87 1 36 0 1
88 1 37 0 1
89 1 38 0 1
90 2 39 0 1
91 2 40 0 1
92 2 41 0 1
93 2 42 0 1
94 2 43 0 1
95 2 44 0 1
96 1 45 0 1
97 1 46 0 1
98 2 47 0 1
99 2 48 0 1
100 2 49 0 1
101 2 0 0 2
102 2 1 0 2
103 2 2 0 2
104 2 3 0 2
105 1 4 0 2
106 1 5 0 2
107 1 6 0 2
108 1 7 0 2
109 1 8 0 2
110 2 9 0 2
111 2 10 0 2
112 2 11 0 2
113 2 12 0 2
114 1 13 0 2
115 1 14 0 2
116 1 15 0 2
117 1 16 0 2
118 1 17 0 2
119 1 18 0 2
120 1 19 0 2
121 1 20 0 2
122 1 21 0 2
123 1 22 0 2
124 1 23 0 2
125 1 24 0 2
126 1 25 0 2
127 1 26 0 2
128 2 27 0 2
129 2 28 0 2
130 2 29 0 2
131 2 30 0 2
132 2 31 0 2
133 2 32 0 2
134 2 33 0 2
135 2 34 0 2
136 1 35 0 2
137 1 36 0 2
138 1 37 0 2
139 2 38 0 2
140 2 39 0 2
141 2 40 0 2
142 2 41 0 2
143 2 42 0 2
144 2 43 0 2
145 2 44 0 2
146 2 45 0 2
147 1 46 0 2
148 1 47 0 2
149 2 48 0 2
150 2 49 0 2
151 1 0 0 3
152 1 1 0 3
153 1 2 0 3
154 1 3 0 3
155 1 4 0 3
156 1 5 0 3
157 1 6 0 3
158 1 7 0 3
159 2 8 0 3
160 2 9 0 3
161 2 10 0 3
162 2 11 0 3
163 2 12 0 3
164 2 13 0 3
165 1 14 0 3
166 1 15 0 3
167 1 16 0 3
168 1 17 0 3
169 1 18 0 3
170 1 19 0 3
171 1 20 0 3
172 1 21 0 3
173 1 22 0 3
174 1 23 0 3
175 1 24 0 3
176 1 25 0 3
177 1 26 0 3
178 2 27 0 3
179 2 28 0 3
180 2 29 0 3
181 2 30 0 3
182 2 31 0 3
183 2 32 0 3
184 2 33 0 3
185 1 34 0 3
186 1 35 0 3
187 1 36 0 3
188 2 37 0 3
189 2 38 0 3
190 2 39 0 3
191 2 40 0 3
192 2 41 0 3
193 2 42 0 3
194 2 43 0 3
195 2 44 0 3
196 2 45 0 3
197 2 46 0 3
198 1 47 0 3
199 1 48 0 3
200 1 49 0 3
201 1 0 0 4
202 1 1 0 4
203 1 2 0 4
204 1 3 0 4
205 1 4 0 4
206 1 5 0 4
207 1 6 0 4
208 1 7 0 4
209 2 8 0 4
210 2 9 0 4
211 2 10 0 4
212 2 11 0 4
213 2 12 0 4
214 2 13 0 4
215 1 14 0 4
216 1 15 0 4
217 1 16 0 4
218 1 17 0 4
219 1 18 0 4
220 1 19 0 4
221 1 20 0 4
222 1 21 0 4
223 1 22 0 4
224 1 23 0 4
225 1 24 0 4
226 1 25 0 4
227 1 26 0 4
228 1 27 0 4
229 2 28 0 4
230 2 29 0 4
231 2 30 0 4
232 2 31 0 4
233 2 32 0 4
234 1 33 0 4
235 1 34 0 4
236 1 35 0 4
237 1 36 0 4
238 2 37 0 4
239 2 38 0 4
240 2 39 0 4
241 2 40 0 4
242 2 41 0 4
243 2 42 0 4
244 2 43 0 4
245 2 44 0 4
246 2 45 0 4
247 2 46 0 4
248 1 47 0 4
249 1 48 0 4
250 1 49 0 4
251 1 0 0 5
252 1 1 0 5
253 1 2 0 5
254 1 3 0 5
255 1 4 0 5
256 1 5 0 5
257 1 6 0 5
258 1 7 0 5
259 2 8 0 5
260 2 9 0 5
261 2 10 0 5
262 2 11 0 5
263 2 12 0 5
264 2 13 0 5
265 1 14 0 5
266 1 15 0 5
267 1 16 0 5
268 1 17 0 5
269 1 18 0 5
270 1 19 0 5
271 1 20 0 5
272 1 21 0 5
273 1 22 0 5
274 1 23 0 5
275 1 24 0 5
276 1 25 0 5
277 1 26 0 5
278 1 27 0 5
279 1 28 0 5
280 1 29 0 5
281 1 30 0 5
282 1 31 0 5
283 1 32 0 5
284 1 33 0 5
285 1 34 0 5
286 1 35 0 5
287 1 36 0 5
288 2 37 0 5
289 2 38 0 5
290 2 39 0 5
291 2 40 0 5
292 2 41 0 5
293 2 42 0 5
294 2 43 0 5
295 2 44 0 5
296 2 45 0 5
297 2 46 0 5
298 1 47 0 5
299 1 48 0 5
300 1 49 0 5
301 1 0 0 6
302 1 1 0 6
303 1 2 0 6
304 1 3 0 6
305 1 4 0 6
306 1 5 0 6
307 1 6 0 6
308 1 7 0 6
309 1 8 0 6
310 2 9 0 6
311 2 10 0 6
312 2 11 0 6
313 2 12 0 6
314 1 13 0 6
315 1 14 0 6
316 1 15 0 6
317 1 16 0 6
318 1 17 0 6
319 1 18 0 6
320 1 19 0 6
321 1 20 0 6
322 1 21 0 6
323 1 22 0 6
324 1 23 0 6
325 1 24 0 6
326 1 25 0 6
327 1 26 0 6
328 1 27 0 6
329 1 28 0 6
330 1 29 0 6
331 1 30 0 6
332 1 31 0 6
333 1 32 0 6
334 1 33 0 6
335 1 34 0 6
336 1 35 0 6
337 1 36 0 6
338 2 37 0 6
339 2 38 0 6
340 2 39 0 6
341 2 40 0 6
342 2 41 0 6
343 2 42 0 6
344 2 43 0 6
345 2 44 0 6
346 2 45 0 6
347 2 46 0 6
348 1 47 0 6
349 1 48 0 6
350 1 49 0 6
351 1 0 0 7
352 1 1 0 7
353 1 2 0 7
354 1 3 0 7
355 1 4 0 7
356 1 5 0 7
357 1 6 0 7
358 1 7 0 7
359 1 8 0 7
360 1 9 0 7
361 2 10 0 7
362 2 11 0 7
363 1 12 0 7
364 1 13 0 7
365 1 14 0 7
366 1 15 0 7
367 1 16 0 7
368 1 17 0 7
369 1 18 0 7
370 1 19 0 7
371 1 20 0 7
372 1 21 0 7
373 1 22 0 7
374 1 23 0 7
375 1 24 0 7
376 1 25 0 7
377 1 26 0 7
378 1 27 0 7
379 1 28 0 7
380 1 29 0 7
381 1 30 0 7
382 1 31 0 7
383 1 32 0 7
384 1 33 0 7
385 1 34 0 7
386 1 35 0 7
387 1 36 0 7
388 2 37 0 7
389 2 38 0 7
390 2 39 0 7
391 2 40 0 7
392 2 41 0 7
393 2 42 0 7
394 2 43 0 7
395 2 44 0 7
396 2 45 0 7
397 2 46 0 7
398 1 47 0 7
399 1 48 0 7
400 1 49 0 7
401 1 0 0 8
402 1 1 0 8
403 1 2 0 8
404 1 3 0 8
405 1 4 0 8
406 1 5 0 8
407 1 6 0 8
408 1 7 0 8
409 1 8 0 8
410 1 9 0 8
411 1 10 0 8
412 1 11 0 8
413 1 12 0 8
414 1 13 0 8
415 1 14 0 8
416 1 15 0 8
417 1 16 0 8
418 1 17 0 8
419 1 18 0 8
420 1 19 0 8
421 1 20 0 8
422 1 21 0 8
423 1 22 0 8
424 1 23 0 8
425 1 24 0 8
426 1 25 0 8
427 1 26 0 8
428 1 27 0 8
429 1 28 0 8
430 1 29 0 8
431 1 30 0 8
432 1 31 0 8
433 1 32 0 8
434 1 33 0 8
435 1 34 0 8
436 1 35 0 8
437 1 36 0 8
438 1 37 0 8
439 2 38 0 8
440 2 39 0 8
441 2 40 0 8
442 2 41 0 8
443 2 42 0 8
444 2 43 0 8
445 2 44 0 8
446 2 45 0 8
447 2 46 0 8
448 1 47 0 8
449 1 48 0 8
450 1 49 0 8
451 1 0 0 9
452 1 1 0 9
453 1 2 0 9
454 1 3 0 9
455 1 4 0 9
456 1 5 0 9
457 1 6 0 9
458 1 7 0 9
459 1 8 0 9
460 1 9 0 9
461 1 10 0 9
462 1 11 0 9
463 1 12 0 9
464 1 13 0 9
465 1 14 0 9
466 1 15 0 9
467 1 16 0 9
468 1 17 0 9
469 1 18 0 9
470 1 19 0 9
471 1 20 0 9
472 1 21 0 9
473 1 22 0 9
474 1 23 0 9
475 1 24 0 9
476 1 25 0 9
477 1 26 0 9
478 1 27 0 9
479 1 28 0 9
480 1 29 0 9
481 1 30 0 9
482 1 31 0 9
483 1 32 0 9
484 1 33 0 9
485 1 34 0 9
486 1 35 0 9
487 1 36 0 9
488 1 37 0 9
489 1 38 0 9
490 2 39 0 9
491 2 40 0 9
492 2 41 0 9
493 2 42 0 9
494 2 43 0 9
495 2 44 0 9
496 2 45 0 9
497 1 46 0 9
498 1 47 0 9
499 1 48 0 9
500 1 49 0 9
501 1 0 0 10
502 1 1 0 10
503 1 2 0 10
504 1 3 0 10
505 1 4 0 10
506 1 5 0 10
507 1 6 0 10
508 1 7 0 10
509 1 8 0 10
510 1 9 0 10
511 1 10 0 10
512 1 11 0 10
513 1 12 0 10
514 1 13 0 10
515 1 14 0 10
516 1 15 0 10
517 1 16 0 10
518 1 17 0 10
519 1 18 0 10
520 1 19 0 10
521 1 20 0 10
522 1 21 0 10
523 1 22 0 10
524 1 23 0 10
525 1 24 0 10
526 1 25 0 10
527 1 26 0 10
528 1 27 0 10
529 1 28 0 10
530 1 29 0 10
531 1 30 0 10
532 1 31 0 10
533 1 32 0 10
534 1 33 0 10
535 1 34 0 10
536 1 35 0 10
537 1 36 0 10
538 1 37 0 10
539 1 38 0 10
540 1 39 0 10
541 2 40 0 10
542 2 41 0 10
543 2 42 0 10
544 2 43 0 10
545 1 44 0 10
546 1 45 0 10
547 1 46 0 10
548 1 47 0 10
549 1 48 0 10
550 1 49 0 10
551 1 0 0 11
552 1 1 0 11
553 1 2 0 11
554 1 3 0 11
555 1 4 0 11
556 1 5 0 11
557 1 6 0 11
558 1 7 0 11
559 1 8 0 11
560 1 9 0 11
561 1 10 0 11
562 1 11 0 11
563 1 12 0 11
564 1 13 0 11
565 1 14 0 11
566 1 15 0 11
567 1 16 0 11
568 1 17 0 11
569 1 18 0 11
570 1 19 0 11
571 1 20 0 11
572 1 21 0 11
573 1 22 0 11
574 1 23 0 11
575 1 24 0 11
576 1 25 0 11
577 1 26 0 11
578 1 27 0 11
579 1 28 0 11
580 1 29 0 11
581 1 30 0 11
582 1 31 0 11
583 1 32 0 11
584 1 33 0 11
585 1 34 0 11
586 1 35 0 11
587 1 36 0 11
588 1 37 0 11
589 1 38 0 11
590 1 39 0 11
591 1 40 0 11
592 1 41 0 11
593 1 42 0 11
594 1 43 0 11
595 1 44 0 11
596 1 45 0 11
597 1 46 0 11
598 1 47 0 11
599 1 48 0 11
600 1 49 0 11
601 1 0 0 12
602 1 1 0 12
603 1 2 0 12
604 1 3 0 12
605 1 4 0 12
606 1 5 0 12
607 1 6 0 12
608 1 7 0 12
609 1 8 0 12
610 1 9 0 12
611 1 10 0 12
612 1 11 0 12
613 1 12 0 12
614 1 13 0 12
615 1 14 0 12
616 1 15 0 12
617 1 16 0 12
618 1 17 0 12
619 1 18 0 12
620 1 19 0 12
621 1 20 0 12
622 1 21 0 12
623 1 22 0 12
624 1 23 0 12
625 1 24 0 12
626 1 25 0 12
627 1 26 0 12
628 1 27 0 12
629 1 28 0 12
630 1 29 0 12
631 1 30 0 12
632 1 31 0 12
633 1 32 0 12
634 1 33 0 12
635 1 34 0 12
636 1 35 0 12
637 1 36 0 12
638 1 37 0 12
639 1 38 0 12
640 1 39 0 12
641 1 40 0 12
642 1 41 0 12
643 1 42 0 12
644 1 43 0 12
645 1 44 0 12
646 1 45 0 12
647 1 46 0 12
648 1 47 0 12
649 1 48 0 12
650 1 49 0 12
651 1 0 0 13
652 1 1 0 13
653 1 2 0 13
654 1 3 0 13
655 1 4 0 13
656 1 5 0 13
657 1 6 0 13
658 1 7 0 13
659 1 8 0 13
660 1 9 0 13
661 1 10 0 13
662 1 11 0 13
663 1 12 0 13
664 1 13 0 13
665 1 14 0 13
666 1 15 0 13
667 1 16 0 13
668 1 17 0 13
669 1 18 0 13
670 1 19 0 13
671 1 20 0 13
672 1 21 0 13
673 1 22 0 13
674 1 23 0 13
675 1 24 0 13
676 1 25 0 13
677 1 26 0 13
678 1 27 0 13
679 1 28 0 13
680 1 29 0 13
681 1 30 0 13
682 1 31 0 13
683 1 32 0 13
684 1 33 0 13
685 1 34 0 13
686 1 35 0 13
687 1 36 0 13
688 1 37 0 13
689 1 38 0 13
690 1 39 0 13
691 1 40 0 13
692 1 41 0 13
693 1 42 0 13
694 1 43 0 13
695 1 44 0 13
696 1 45 0 13
697 1 46 0 13
698 1 47 0 13
699 1 48 0 13
700 1 49 0 13
701 1 0 0 14
702 1 1 0 14
703 1 2 0 14
704 1 3 0 14
705 1 4 0 14
706 1 5 0 14
707 1 6 0 14
708 1 7 0 14
709 1 8 0 14
710 1 9 0 14
711 1 10 0 14
712 1 11 0 14
713 1 12 0 14
714 1 13 0 14
715 1 14 0 14
716 1 15 0 14
717 1 16 0 14
718 1 17 0 14
719 1 18 0 14
720 1 19 0 14
721 1 20 0 14
722 1 21 0 14
723 1 22 0 14
724 1 23 0 14
725 1 24 0 14
726 1 25 0 14
727 1 26 0 14
728 1 27 0 14
729 1 28 0 14
730 1 29 0 14
731 1 30 0 14
732 1 31 0 14
733 1 32 0 14
734 1 33 0 14
735 1 34 0 14
736 1 35 0 14
737 1 36 0 14
738 1 37 0 14
739 1 38 0 14
740 1 39 0 14
741 1 40 0 14
742 1 41 0 14
743 1 42 0 14
744 1 43 0 14
745 1 44 0 14
746 1 45 0 14
747 1 46 0 14
748 1 47 0 14
749 1 48 0 14
750 1 49 0 14
751 1 0 0 15
752 1 1 0 15
753 1 2 0 15
754 1 3 0 15
755 1 4 0 15
756 1 5 0 15
757 1 6 0 15
758 1 7 0 15
759 1 8 0 15
760 1 9 0 15
761 1 10 0 15
762 1 11 0 15
763 1 12 0 15
764 1 13 0 15
765 1 14 0 15
766 1 15 0 15
767 1 16 0 15
768 1 17 0 15
769 1 18 0 15
770 1 19 0 15
771 1 20 0 15
772 1 21 0 15
773 1 22 0 15
774 1 23 0 15
775 1 24 0 15
776 1 25 0 15
777 1 26 0 15
778 1 27 0 15
779 1 28 0 15
780 1 29 0 15
781 1 30 0 15
782 1 31 0 15
783 1 32 0 15
784 1 33 0 15
785 1 34 0 15
786 1 35 0 15
787 1 36 0 15
788 1 37 0 15
789 1 38 0 15
790 1 39 0 15
791 1 40 0 15
792 1 41 0 15
793 1 42 0 15
794 1 43 0 15
795 1 44 0 15
796 1 45 0 15
797 1 46 0 15
798 1 47 0 15
799 1 48 0 15
800 1 49 0 15
801 1 0 0 16
802 1 1 0 16
803 1 2 0 16
804 1 3 0 16
805 1 4 0 16
806 1 5 0 16
807 1 6 0 16
808 1 7 0 16
809 1 8 0 16
810 1 9 0 16
811 1 10 0 16
812 1 11 0 16
813 1 12 0 16
814 1 13 0 16
815 1 14 0 16
816 1 15 0 16
817 1 16 0 16
818 1 17 0 16
819 1 18 0 16
820 1 19 0 16
821 1 20 0 16
822 1 21 0 16
823 1 22 0 16
824 1 23 0 16
825 1 24 0 16
826 1 25 0 16
827 1 26 0 16
828 1 27 0 16
829 1 28 0 16
830 1 29 0 16
831 1 30 0 16
832 1 31 0 16
833 1 32 0 16
834 1 33 0 16
835 1 34 0 16
836 1 35 0 16
837 1 36 0 16
838 1 37 0 16
839 1 38 0 16
840 1 39 0 16
841 1 40 0 16
842 1 41 0 16
843 1 42 0 16
844 1 43 0 16
845 1 44 0 16
846 1 45 0 16
847 1 46 0 16
848 1 47 0 16
849 1 48 0 16
850 1 49 0 16
851 1 0 0 17
852 1 1 0 17
853 1 2 0 17
854 1 3 0 17
855 1 4 0 17
856 1 5 0 17
857 1 6 0 17
858 1 7 0 17
859 1 8 0 17
860 1 9 0 17
861 1 10 0 17
862 1 11 0 17
863 1 12 0 17
864 1 13 0 17
865 1 14 0 17
866 1 15 0 17
867 1 16 0 17
868 1 17 0 17
869 1 18 0 17
870 1 19 0 17
871 1 20 0 17
872 1 21 0 17
873 2 22 0 17
874 1 23 0 17
875 1 24 0 17
876 1 25 0 17
877 1 26 0 17
878 1 27 0 17
879 1 28 0 17
880 1 29 0 17
881 1 30 0 17
882 1 31 0 17
883 1 32 0 17
884 1 33 0 17
885 1 34 0 17
886 1 35 0 17
887 1 36 0 17
888 1 37 0 17
889 1 38 0 17
890 1 39 0 17
891 1 40 0 17
892 1 41 0 17
893 1 42 0 17
894 1 43 0 17
895 1 44 0 17
896 1 45 0 17
897 1 46 0 17
898 1 47 0 17
899 1 48 0 17
900 1 49 0 17
901 1 0 0 18
902 1 1 0 18
903 1 2 0 18
904 1 3 0 18
905 1 4 0 18
906 1 5 0 18
907 1 6 0 18
908 1 7 0 18
909 1 8 0 18
910 1 9 0 18
911 1 10 0 18
912 1 11 0 18
913 1 12 0 18
914 1 13 0 18
915 1 14 0 18
916 1 15 0 18
917 1 16 0 18
918 1 17 0 18
919 1 18 0 18
920 2 19 0 18
921 2 20 0 18
922 2 21 0 18
923 2 22 0 18
924 2 23 0 18
925 2 24 0 18
926 2 25 0 18
927 1 26 0 18
928 1 27 0 18
929 1 28 0 18
930 1 29 0 18
931 1 30 0 18
932 1 31 0 18
933 1 32 0 18
934 1 33 0 18
935 1 34 0 18
936 1 35 0 18
937 1 36 0 18
938 1 37 0 18
939 1 38 0 18
940 1 39 0 18
941 1 40 0 18
942 1 41 0 18
943 1 42 0 18
944 1 43 0 18
945 1 44 0 18
946 1 45 0 18
947 1 46 0 18
948 1 47 0 18
949 1 48 0 18
950 1 49 0 18
951 2 0 0 19
952 2 1 0 19
953 2 2 0 19
954 2 3 0 19
955 1 4 0 19
956 1 5 0 19
957 1 6 0 19
958 1 7 0 19
959 1 8 0 19
960 1 9 0 19
961 1 10 0 19
962 1 11 0 19
963 1 12 0 19
964 1 13 0 19
965 1 14 0 19
966 1 15 0 19
967 1 16 0 19
968 1 17 0 19
969 2 18 0 19
970 2 19 0 19
971 2 20 0 19
972 2 21 0 19
973 2 22 0 19
974 2 23 0 19
975 2 24 0 19
976 2 25 0 19
977 2 26 0 19
978 1 27 0 19
979 1 28 0 19
980 1 29 0 19
981 1 30 0 19
982 1 31 0 19
983 1 32 0 19
984 1 33 0 19
985 1 34 0 19
986 1 35 0 19
987 1 36 0 19
988 1 37 0 19
989 1 38 0 19
990 1 39 0 19
991 1 40 0 19
992 1 41 0 19
993 1 42 0 19
994 1 43 0 19
995 1 44 0 19
996 1 45 0 19
997 1 46 0 19
998 1 47 0 19
999 1 48 0 19
1000 2 49 0 19
1001 2 0 0 20
1002 2 1 0 20
1003 2 2 0 20
1004 2 3 0 20
1005 2 4 0 20
1006 2 5 0 20
1007 1 6 0 20
1008 1 7 0 20
1009 1 8 0 20
1010 1 9 0 20
1011 1 10 0 20
1012 1 11 0 20
1013 1 12 0 20
1014 1 13 0 20
1015 1 14 0 20
1016 1 15 0 20
1017 1 16 0 20
1018 1 17 0 20
1019 2 18 0 20
1020 2 19 0 20
1021 2 20 0 20
1022 2 21 0 20
1023 2 22 0 20
1024 2 23 0 20
1025 2 24 0 20
1026 2 25 0 20
1027 2 26 0 20
1028 1 27 0 20
1029 1 28 0 20
1030 1 29 0 20
1031 1 30 0 20
1032 1 31 0 20
1033 1 32 0 20
1034 1 33 0 20
1035 1 34 0 20
1036 1 35 0 20
1037 1 36 0 20
1038 1 37 0 20
1039 1 38 0 20
1040 1 39 0 20
1041 1 40 0 20
1042 1 41 0 20
1043 1 42 0 20
1044 1 43 0 20
1045 1 44 0 20
1046 1 45 0 20
1047 1 46 0 20
1048 1 47 0 20
1049 2 48 0 20
1050 2 49 0 20
1051 2 0 0 21
1052 2 1 0 21
1053 2 2 0 21
1054 2 3 0 21
1055 2 4 0 21
1056 2 5 0 21
1057 1 6 0 21
1058 1 7 0 21
1059 1 8 0 21
1060 1 9 0 21
1061 1 10 0 21
1062 1 11 0 21
1063 1 12 0 21
1064 1 13 0 21
1065 1 14 0 21
1066 1 15 0 21
1067 1 16 0 21
1068 2 17 0 21
1069 2 18 0 21
1070 2 19 0 21
1071 2 20 0 21
1072 2 21 0 21
1073 2 22 0 21
1074 2 23 0 21
1075 2 24 0 21
1076 2 25 0 21
1077 2 26 0 21
1078 2 27 0 21
1079 1 28 0 21
1080 1 29 0 21
1081 1 30 0 21
1082 1 31 0 21
1083 1 32 0 21
1084 1 33 0 21
1085 1 34 0 21
1086 1 35 0 21
1087 1 36 0 21
1088 1 37 0 21
1089 1 38 0 21
1090 1 39 0 21
1091 1 40 0 21
1092 1 41 0 21
1093 1 42 0 21
1094 1 43 0 21
1095 1 44 0 21
1096 1 45 0 21
1097 1 46 0 21
1098 2 47 0 21
1099 2 48 0 21
1100 2 49 0 21
1101 2 0 0 22
1102 2 1 0 22
1103 2 2 0 22
1104 2 3 0 22
1105 2 4 0 22
1106 2 5 0 22
1107 2 6 0 22
1108 1 7 0 22
1109 1 8 0 22
1110 1 9 0 22
1111 1 10 0 22
1112 1 11 0 22
1113 1 12 0 22
1114 1 13 0 22
1115 1 14 0 22
1116 1 15 0 22
1117 1 16 0 22
1118 2 17 0 22
1119 2 18 0 22
1120 2 19 0 22
1121 2 20 0 22
1122 2 21 0 22
1123 2 22 0 22
1124 2 23 0 22
1125 2 24 0 22
1126 2 25 0 22
1127 2 26 0 22
1128 2 27 0 22
1129 1 28 0 22
1130 1 29 0 22
1131 1 30 0 22
1132 1 31 0 22
1133 1 32 0 22
1134 1 33 0 22
1135 1 34 0 22
1136 1 35 0 22
1137 1 36 0 22
1138 1 37 0 22
1139 1 38 0 22
1140 1 39 0 22
1141 1 40 0 22
1142 1 41 0 22
1143 1 42 0 22
1144 1 43 0 22
1145 1 44 0 22
1146 1 45 0 22
1147 1 46 0 22
1148 2 47 0 22
1149 2 48 0 22
1150 2 49 0 22
1151 2 0 0 23
1152 2 1 0 23
1153 2 2 0 23
1154 2 3 0 23
1155 2 4 0 23
1156 2 5 0 23
1157 2 6 0 23
1158 1 7 0 23
1159 1 8 0 23
1160 1 9 0 23
1161 1 10 0 23
1162 1 11 0 23
1163 1 12 0 23
1164 1 13 0 23
1165 1 14 0 23
1166 1 15 0 23
1167 1 16 0 23
1168 2 17 0 23
1169 2 18 0 23
1170 2 19 0 23
1171 2 20 0 23
1172 2 21 0 23
1173 2 22 0 23
1174 2 23 0 23
1175 2 24 0 23
1176 2 25 0 23
1177 2 26 0 23
1178 2 27 0 23
1179 1 28 0 23
1180 1 29 0 23
1181 1 30 0 23
1182 1 31 0 23
1183 1 32 0 23
1184 1 33 0 23
1185 1 34 0 23
1186 1 35 0 23
1187 1 36 0 23
1188 1 37 0 23
1189 1 38 0 23
1190 1 39 0 23
1191 1 40 0 23
1192 1 41 0 23
1193 1 42 0 23
1194 1 43 0 23
1195 1 44 0 23
1196 1 45 0 23
1197 1 46 0 23
1198 2 47 0 23
1199 2 48 0 23
1200 2 49 0 23
1201 2 0 0 24
1202 2 1 0 24
1203 2 2 0 24
1204 2 3 0 24
1205 2 4 0 24
1206 2 5 0 24
1207 2 6 0 24
1208 1 7 0 24
1209 1 8 0 24
1210 1 9 0 24
1211 1 10 0 24
1212 1 11 0 24
1213 1 12 0 24
1214 1 13 0 24
1215 1 14 0 24
1216 1 15 0 24
1217 1 16 0 24
1218 1 17 0 24
1219 2 18 0 24
1220 2 19 0 24
1221 2 20 0 24
1222 2 21 0 24
1223 2 22 0 24
1224 2 23 0 24
1225 2 24 0 24
1226 2 25 0 24
1227 2 26 0 24
1228 1 27 0 24
1229 1 28 0 24
1230 1 29 0 24
1231 1 30 0 24
1232 1 31 0 24
1233 1 32 0 24
1234 1 33 0 24
1235 1 34 0 24
1236 1 35 0 24
1237 1 36 0 24
1238 1 37 0 24
1239 1 38 0 24
1240 1 39 0 24
1241 1 40 0 24
1242 1 41 0 24
1243 1 42 0 24
1244 1 43 0 24
1245 1 44 0 24
1246 1 45 0 24
1247 1 46 0 24
1248 2 47 0 24
1249 2 48 0 24
1250 2 49 0 24
1251 2 0 0 25
1252 2 1 0 25
1253 2 2 0 25
1254 2 3 0 25
1255 2 4 0 25
1256 2 5 0 25
1257 1 6 0 25
1258 1 7 0 25
1259 1 8 0 25
1260 1 9 0 25
1261 2 10 0 25
1262 2 11 0 25
1263 2 12 0 25
1264 2 13 0 25
1265 2 14 0 25
1266 2 15 0 25
1267 1 16 0 25
1268 1 17 0 25
1269 2 18 0 25
1270 2 19 0 25
1271 2 20 0 25
1272 2 21 0 25
1273 2 22 0 25
1274 2 23 0 25
1275 2 24 0 25
1276 2 25 0 25
1277 2 26 0 25
1278 1 27 0 25
1279 1 28 0 25
1280 1 29 0 25
1281 1 30 0 25
1282 1 31 0 25
1283 1 32 0 25
1284 1 33 0 25
1285 1 34 0 25
1286 1 35 0 25
1287 1 36 0 25
1288 1 37 0 25
1289 1 38 0 25
1290 2 39 0 25
1291 2 40 0 25
1292 2 41 0 25
1293 2 42 0 25
1294 1 43 0 25
1295 1 44 0 25
1296 1 45 0 25
1297 1 46 0 25
1298 2 47 0 25
1299 2 48 0 25
1300 2 49 0 25
1301 2 0 0 26
1302 2 1 0 26
1303 2 2 0 26
1304 2 3 0 26
1305 2 4 0 26
1306 2 5 0 26
1307 1 6 0 26
1308 1 7 0 26
1309 1 8 0 26
1310 2 9 0 26
1311 2 10 0 26
1312 2 11 0 26
1313 2 12 0 26
1314 2 13 0 26
1315 2 14 0 26
1316 2 15 0 26
1317 2 16 0 26
1318 1 17 0 26
1319 1 18 0 26
1320 2 19 0 26
1321 2 20 0 26
1322 2 21 0 26
1323 2 22 0 26
1324 2 23 0 26
1325 2 24 0 26
1326 2 25 0 26
1327 1 26 0 26
1328 1 27 0 26
1329 1 28 0 26
1330 1 29 0 26
1331 1 30 0 26
1332 1 31 0 26
1333 1 32 0 26
1334 1 33 0 26
1335 1 34 0 26
1336 1 35 0 26
1337 1 36 0 26
1338 1 37 0 26
1339 2 38 0 26
1340 2 39 0 26
1341 2 40 0 26
1342 2 41 0 26
1343 2 42 0 26
1344 2 43 0 26
1345 1 44 0 26
1346 1 45 0 26
1347 1 46 0 26
1348 2 47 0 26
1349 2 48 0 26
1350 2 49 0 26
1351 2 0 0 27
1352 2 1 0 27
1353 2 2 0 27
1354 2 3 0 27
1355 2 4 0 27
1356 1 5 0 27
1357 1 6 0 27
1358 1 7 0 27
1359 1 8 0 27
1360 2 9 0 27
1361 2 10 0 27
1362 2 11 0 27
1363 2 12 0 27
1364 2 13 0 27
1365 2 14 0 27
1366 2 15 0 27
1367 2 16 0 27
1368 2 17 0 27
1369 1 18 0 27
1370 1 19 0 27
1371 1 20 0 27
1372 2 21 0 27
1373 2 22 0 27
1374 2 23 0 27
1375 1 24 0 27
1376 1 25 0 27
1377 1 26 0 27
1378 1 27 0 27
1379 1 28 0 27
1380 1 29 0 27
1381 1 30 0 27
1382 1 31 0 27
1383 1 32 0 27
1384 1 33 0 27
1385 1 34 0 27
1386 1 35 0 27
1387 1 36 0 27
1388 1 37 0 27
1389 2 38 0 27
1390 2 39 0 27
1391 2 40 0 27
1392 2 41 0 27
1393 2 42 0 27
1394 2 43 0 27
1395 2 44 0 27
1396 1 45 0 27
1397 1 46 0 27
1398 1 47 0 27
1399 2 48 0 27
1400 2 49 0 27
1401 2 0 0 28
1402 2 1 0 28
1403 2 2 0 28
1404 1 3 0 28
1405 1 4 0 28
1406 1 5 0 28
1407 1 6 0 28
1408 1 7 0 28
1409 2 8 0 28
1410 2 9 0 28
1411 2 10 0 28
1412 2 11 0 28
1413 2 12 0 28
1414 2 13 0 28
1415 2 14 0 28
1416 2 15 0 28
1417 2 16 0 28
1418 2 17 0 28
1419 1 18 0 28
1420 1 19 0 28
1421 1 20 0 28
1422 1 21 0 28
1423 1 22 0 28
1424 1 23 0 28
1425 1 24 0 28
1426 1 25 0 28
1427 1 26 0 28
1428 1 27 0 28
1429 1 28 0 28
1430 1 29 0 28
1431 1 30 0 28
1432 1 31 0 28
1433 1 32 0 28
1434 1 33 0 28
1435 1 34 0 28
1436 1 35 0 28
1437 1 36 0 28
1438 2 37 0 28
1439 2 38 0 28
1440 2 39 0 28
1441 2 40 0 28
1442 2 41 0 28
1443 2 42 0 28
1444 2 43 0 28
1445 2 44 0 28
1446 1 45 0 28
1447 1 46 0 28
1448 1 47 0 28
1449 1 48 0 28
1450 1 49 0 28
1451 1 0 0 29
1452 1 1 0 29
1453 1 2 0 29
1454 1 3 0 29
1455 1 4 0 29
1456 1 5 0 29
1457 1 6 0 29
1458 1 7 0 29
1459 2 8 0 29
1460 2 9 0 29
1461 2 10 0 29
1462 2 11 0 29
1463 2 12 0 29
1464 2 13 0 29
1465 2 14 0 29
1466 2 15 0 29
1467 2 16 0 29
1468 2 17 0 29
1469 1 18 0 29
1470 1 19 0 29
1471 1 20 0 29
1472 1 21 0 29
1473 1 22 0 29
1474 1 23 0 29
1475 1 24 0 29
1476 1 25 0 29
1477 1 26 0 29
1478 1 27 0 29
1479 1 28 0 29
1480 1 29 0 29
1481 1 30 0 29
1482 1 31 0 29
1483 1 32 0 29
1484 1 33 0 29
1485 1 34 0 29
1486 1 35 0 29
1487 1 36 0 29
1488 2 37 0 29
1489 2 38 0 29
1490 2 39 0 29
1491 2 40 0 29
1492 2 41 0 29
1493 2 42 0 29
1494 2 43 0 29
1495 2 44 0 29
1496 1 45 0 29
1497 1 46 0 29
1498 1 47 0 29
1499 1 48 0 29
1500 1 49 0 29
1501 1 0 0 30
1502 1 1 0 30
1503 1 2 0 30
1504 1 3 0 30
1505 1 4 0 30
1506 1 5 0 30
1507 1 6 0 30
1508 1 7 0 30
1509 2 8 0 30
1510 2 9 0 30
1511 2 10 0 30
1512 2 11 0 30
1513 2 12 0 30
1514 2 13 0 30
1515 2 14 0 30
1516 2 15 0 30
1517 2 16 0 30
1518 2 17 0 30
1519 1 18 0 30
1520 1 19 0 30
1521 1 20 0 30
1522 1 21 0 30
1523 1 22 0 30
1524 1 23 0 30
1525 1 24 0 30
1526 1 25 0 30
1527 1 26 0 30
1528 1 27 0 30
1529 1 28 0 30
1530 1 29 0 30
1531 1 30 0 30
1532 1 31 0 30
1533 1 32 0 30
1534 1 33 0 30
1535 1 34 0 30
1536 1 35 0 30
1537 1 36 0 30
1538 1 37 0 30
1539 2 38 0 30
1540 2 39 0 30
1541 2 40 0 30
1542 2 41 0 30
1543 2 42 0 30
1544 2 43 0 30
1545 2 44 0 30
1546 1 45 0 30
1547 1 46 0 30
1548 1 47 0 30
1549 1 48 0 30
1550 1 49 0 30
1551 1 0 0 31
1552 1 1 0 31
1553 1 2 0 31
1554 1 3 0 31
1555 1 4 0 31
1556 1 5 0 31
1557 1 6 0 31
1558 1 7 0 31
1559 1 8 0 31
1560 2 9 0 31
1561 2 10 0 31
1562 2 11 0 31
1563 2 12 0 31
1564 2 13 0 31
1565 2 14 0 31
1566 2 15 0 31
1567 2 16 0 31
1568 2 17 0 31
1569 1 18 0 31
1570 1 19 0 31
1571 1 20 0 31
1572 1 21 0 31
1573 1 22 0 31
1574 1 23 0 31
1575 1 24 0 31
1576 1 25 0 31
1577 1 26 0 31
1578 1 27 0 31
1579 1 28 0 31
1580 1 29 0 31
1581 1 30 0 31
1582 1 31 0 31
1583 1 32 0 31
1584 1 33 0 31
1585 1 34 0 31
1586 1 35 0 31
1587 1 36 0 31
1588 1 37 0 31
1589 2 38 0 31
1590 2 39 0 31
1591 2 40 0 31
1592 2 41 0 31
1593 2 42 0 31
1594 2 43 0 31
1595 1 44 0 31
1596 1 45 0 31
1597 1 46 0 31
1598 1 47 0 31
1599 2 48 0 31
1600 2 49 0 31
1601 1 0 0 32
1602 2 1 0 32
1603 1 2 0 32
1604 1 3 0 32
1605 1 4 0 32
1606 1 5 0 32
1607 1 6 0 32
1608 1 7 0 32
1609 1 8 0 32
1610 2 9 0 32
1611 2 10 0 32
1612 2 11 0 32
1613 2 12 0 32
1614 2 13 0 32
1615 2 14 0 32
1616 2 15 0 32
1617 2 16 0 32
1618 1 17 0 32
1619 1 18 0 32
1620 1 19 0 32
1621 1 20 0 32
1622 1 21 0 32
1623 1 22 0 32
1624 1 23 0 32
1625 1 24 0 32
1626 1 25 0 32
1627 1 26 0 32
1628 1 27 0 32
1629 1 28 0 32
1630 1 29 0 32
1631 1 30 0 32
1632 1 31 0 32
1633 1 32 0 32
1634 1 33 0 32
1635 1 34 0 32
1636 1 35 0 32
1637 1 36 0 32
1638 1 37 0 32
1639 1 38 0 32
1640 1 39 0 32
1641 2 40 0 32
1642 2 41 0 32
1643 1 42 0 32
1644 1 43 0 32
1645 1 44 0 32
1646 1 45 0 32
1647 2 46 0 32
1648 2 47 0 32
1649 2 48 0 32
1650 2 49 0 32
1651 1 0 0 33
1652 2 1 0 33
1653 2 2 0 33
1654 1 3 0 33
1655 1 4 0 33
1656 1 5 0 33
1657 1 6 0 33
1658 1 7 0 33
1659 1 8 0 33
1660 1 9 0 33
1661 2 10 0 33
1662 2 11 0 33
1663 2 12 0 33
1664 2 13 0 33
1665 2 14 0 33
1666 2 15 0 33
1667 1 16 0 33
1668 1 17 0 33
1669 1 18 0 33
1670 1 19 0 33
1671 1 20 0 33
1672 1 21 0 33
1673 1 22 0 33
1674 1 23 0 33
1675 1 24 0 33
1676 1 25 0 33
1677 1 26 0 33
1678 1 27 0 33
1679 1 28 0 33
1680 1 29 0 33
1681 1 30 0 33
1682 1 31 0 33
1683 1 32 0 33
1684 1 33 0 33
1685 1 34 0 33
1686 1 35 0 33
1687 1 36 0 33
1688 1 37 0 33
1689 1 38 0 33
1690 1 39 0 33
1691 1 40 0 33
1692 1 41 0 33
1693 1 42 0 33
1694 1 43 0 33
1695 1 44 0 33
1696 2 45 0 33
1697 2 46 0 33
1698 2 47 0 33
1699 2 48 0 33
1700 2 49 0 33
1701 1 0 0 34
1702 2 1 0 34
1703 2 2 0 34
1704 2 3 0 34
1705 1 4 0 34
1706 1 5 0 34
1707 1 6 0 34
1708 1 7 0 34
1709 1 8 0 34
1710 1 9 0 34
1711 1 10 0 34
1712 1 11 0 34
1713 1 12 0 34
1714 1 13 0 34
1715 1 14 0 34
1716 1 15 0 34
1717 1 16 0 34
1718 1 17 0 34
1719 1 18 0 34
1720 1 19 0 34
1721 1 20 0 34
1722 1 21 0 34
1723 1 22 0 34
1724 1 23 0 34
1725 1 24 0 34
1726 1 25 0 34
1727 1 26 0 34
1728 1 27 0 34
1729 1 28 0 34
1730 1 29 0 34
1731 1 30 0 34
1732 1 31 0 34
1733 1 32 0 34
1734 1 33 0 34
1735 1 34 0 34
1736 1 35 0 34
1737 1 36 0 34
1738 1 37 0 34
1739 1 38 0 34
1740 1 39 0 34
1741 1 40 0 34
1742 1 41 0 34
1743 1 42 0 34
1744 1 43 0 34
1745 1 44 0 34
1746 2 45 0 34
1747 2 46 0 34
1748 2 47 0 34
1749 2 48 0 34
1750 2 49 0 34
1751 1 0 0 35
1752 2 1 0 35
1753 2 2 0 35
1754 2 3 0 35
1755 1 4 0 35
1756 1 5 0 35
1757 1 6 0 35
1758 1 7 0 35
1759 1 8 0 35
1760 1 9 0 35
1761 1 10 0 35
1762 1 11 0 35
1763 1 12 0 35
1764 1 13 0 35
1765 1 14 0 35
1766 1 15 0 35
1767 1 16 0 35
1768 1 17 0 35
1769 1 18 0 35
1770 1 19 0 35
1771 1 20 0 35
1772 1 21 0 35
1773 1 22 0 35
1774 1 23 0 35
1775 1 24 0 35
1776 1 25 0 35
1777 1 26 0 35
1778 1 27 0 35
1779 1 28 0 35
1780 1 29 0 35
1781 1 30 0 35
1782 1 31 0 35
1783 1 32 0 35
1784 1 33 0 35
1785 1 34 0 35
1786 1 35 0 35
1787 1 36 0 35
1788 1 37 0 35
1789 1 38 0 35
1790 1 39 0 35
1791 1 40 0 35
1792 1 41 0 35
1793 1 42 0 35
1794 1 43 0 35
1795 2 44 0 35
1796 2 45 0 35
1797 2 46 0 35
1798 2 47 0 35
1799 2 48 0 35
1800 2 49 0 35
1801 1 0 0 36
1802 2 1 0 36
1803 2 2 0 36
1804 2 3 0 36
1805 1 4 0 36
1806 1 5 0 36
1807 1 6 0 36
1808 1 7 0 36
1809 1 8 0 36
1810 1 9 0 36
1811 1 10 0 36
1812 1 11 0 36
1813 1 12 0 36
1814 1 13 0 36
1815 1 14 0 36
1816 1 15 0 36
1817 1 16 0 36
1818 1 17 0 36
1819 1 18 0 36
1820 1 19 0 36
1821 1 20 0 36
1822 1 21 0 36
1823 1 22 0 36
1824 1 23 0 36
1825 1 24 0 36
1826 1 25 0 36
1827 1 26 0 36
1828 1 27 0 36
1829 1 28 0 36
1830 1 29 0 36
1831 1 30 0 36
1832 1 31 0 36
1833 1 32 0 36
1834 1 33 0 36
1835 1 34 0 36
1836 1 35 0 36
1837 1 36 0 36
1838 1 37 0 36
1839 1 38 0 36
1840 1 39 0 36
1841 1 40 0 36
1842 1 41 0 36
1843 1 42 0 36
1844 1 43 0 36
1845 2 44 0 36
1846 2 45 0 36
1847 2 46 0 36
1848 2 47 0 36
1849 2 48 0 36
1850 2 49 0 36
1851 1 0 0 37
1852 2 1 0 37
1853 2 2 0 37
1854 2 3 0 37
1855 1 4 0 37
1856 1 5 0 37
1857 1 6 0 37
1858 1 7 0 37
1859 1 8 0 37
1860 1 9 0 37
1861 1 10 0 37
1862 1 11 0 37
1863 1 12 0 37
1864 1 13 0 37
1865 1 14 0 37
1866 1 15 0 37
1867 1 16 0 37
1868 1 17 0 37
1869 1 18 0 37
1870 1 19 0 37
1871 1 20 0 37
1872 1 21 0 37
1873 1 22 0 37
1874 1 23 0 37
1875 1 24 0 37
1876 1 25 0 37
1877 1 26 0 37
1878 1 27 0 37
1879 1 28 0 37
1880 1 29 0 37
1881 1 30 0 37
1882 1 31 0 37
1883 1 32 0 37
1884 1 33 0 37
1885 1 34 0 37
1886 1 35 0 37
1887 1 36 0 37
1888 1 37 0 37
1889 1 38 0 37
1890 1 39 0 37
1891 1 40 0 37
1892 1 41 0 37
1893 1 42 0 37
1894 1 43 0 37
1895 2 44 0 37
1896 2 45 0 37
1897 2 46 0 37
1898 2 47 0 37
1899 2 48 0 37
1900 2 49 0 37
1901 1 0 0 38
1902 2 1 0 38
1903 2 2 0 38
1904 2 3 0 38
1905 1 4 0 38
1906 1 5 0 38
1907 1 6 0 38
1908 1 7 0 38
1909 1 8 0 38
1910 1 9 0 38
1911 1 10 0 38
1912 1 11 0 38
1913 1 12 0 38
1914 1 13 0 38
1915 1 14 0 38
1916 1 15 0 38
1917 1 16 0 38
1918 1 17 0 38
1919 1 18 0 38
1920 1 19 0 38
1921 1 20 0 38
1922 1 21 0 38
1923 1 22 0 38
1924 1 23 0 38
1925 1 24 0 38
1926 1 25 0 38
1927 1 26 0 38
1928 1 27 0 38
1929 1 28 0 38
1930 1 29 0 38
1931 1 30 0 38
1932 1 31 0 38
1933 1 32 0 38
1934 1 33 0 38
1935 1 34 0 38
1936 1 35 0 38
1937 1 36 0 38
1938 1 37 0 38
1939 1 38 0 38
1940 1 39 0 38
1941 1 40 0 38
1942 1 41 0 38
1943 1 42 0 38
1944 1 43 0 38
1945 1 44 0 38
1946 2 45 0 38
1947 2 46 0 38
1948 2 47 0 38
1949 2 48 0 38
1950 2 49 0 38
1951 1 0 0 39
1952 2 1 0 39
1953 2 2 0 39
1954 1 3 0 39
1955 1 4 0 39
1956 1 5 0 39
1957 1 6 0 39
1958 1 7 0 39
1959 1 8 0 39
1960 1 9 0 39
1961 1 10 0 39
1962 1 11 0 39
1963 1 12 0 39
1964 1 13 0 39
1965 1 14 0 39
1966 1 15 0 39
1967 1 16 0 39
1968 1 17 0 39
1969 1 18 0 39
1970 1 19 0 39
1971 1 20 0 39
1972 1 21 0 39
1973 1 22 0 39
1974 1 23 0 39
1975 1 24 0 39
1976 2 25 0 39
1977 2 26 0 39
1978 2 27 0 39
1979 1 28 0 39
1980 1 29 0 39
1981 1 30 0 39
1982 1 31 0 39
1983 1 32 0 39
1984 1 33 0 39
1985 1 34 0 39
1986 1 35 0 39
1987 1 36 0 39
1988 1 37 0 39
1989 1 38 0 39
1990 1 39 0 39
1991 1 40 0 39
1992 1 41 0 39
1993 1 42 0 39
1994 1 43 0 39
1995 1 44 0 39
1996 2 45 0 39
1997 2 46 0 39
1998 2 47 0 39
1999 2 48 0 39
2000 2 49 0 39
2001 1 0 0 40
2002 2 1 0 40
2003 1 2 0 40
2004 1 3 0 40
2005 1 4 0 40
2006 1 5 0 40
2007 1 6 0 40
2008 1 7 0 40
2009 1 8 0 40
2010 1 9 0 40
2011 1 10 0 40
2012 1 11 0 40
2013 1 12 0 40
2014 1 13 0 40
2015 1 14 0 40
2016 1 15 0 40
2017 1 16 0 40
2018 1 17 0 40
2019 1 18 0 40
2020 1 19 0 40
2021 1 20 0 40
2022 1 21 0 40
2023 1 22 0 40
2024 1 23 0 40
2025 2 24 0 40
2026 2 25 0 40
2027 2 26 0 40
2028 2 27 0 40
2029 2 28 0 40
2030 1 29 0 40
2031 1 30 0 40
2032 1 31 0 40
2033 1 32 0 40
2034 1 33 0 40
2035 1 34 0 40
2036 1 35 0 40
2037 1 36 0 40
2038 1 37 0 40
2039 2 38 0 40
2040 2 39 0 40
2041 2 40 0 40
2042 2 41 0 40
2043 2 42 0 40
2044 1 43 0 40
2045 1 44 0 40
2046 1 45 0 40
2047 1 46 0 40
2048 2 47 0 40
2049 2 48 0 40
2050 2 49 0 40
2051 1 0 0 41
2052 1 1 0 41
2053 1 2 0 41
2054 1 3 0 41
2055 1 4 0 41
2056 1 5 0 41
2057 1 6 0 41
2058 1 7 0 41
2059 1 8 0 41
2060 1 9 0 41
2061 1 10 0 41
2062 1 11 0 41
2063 1 12 0 41
2064 1 13 0 41
2065 1 14 0 41
2066 1 15 0 41
2067 1 16 0 41
2068 1 17 0 41
2069 1 18 0 41
2070 1 19 0 41
2071 1 20 0 41
2072 1 21 0 41
2073 1 22 0 41
2074 1 23 0 41
2075 2 24 0 41
2076 2 25 0 41
2077 2 26 0 41
2078 2 27 0 41
2079 2 28 0 41
2080 1 29 0 41
2081 1 30 0 41
2082 1 31 0 41
2083 1 32 0 41
2084 1 33 0 41
2085 1 34 0 41
2086 1 35 0 41
2087 1 36 0 41
2088 2 37 0 41
2089 2 38 0 41
2090 2 39 0 41
2091 2 40 0 41
2092 2 41 0 41
2093 2 42 0 41
2094 2 43 0 41
2095 1 44 0 41
2096 1 45 0 41
2097 1 46 0 41
2098 1 47 0 41
2099 1 48 0 41
2100 1 49 0 41
2101 1 0 0 42
2102 1 1 0 42
2103 1 2 0 42
2104 1 3 0 42
2105 1 4 0 42
2106 1 5 0 42
2107 1 6 0 42
2108 1 7 0 42
2109 1 8 0 42
2110 1 9 0 42
2111 1 10 0 42
2112 1 11 0 42
2113 1 12 0 42
2114 1 13 0 42
2115 1 14 0 42
2116 1 15 0 42
2117 1 16 0 42
2118 1 17 0 42
2119 1 18 0 42
2120 1 19 0 42
2121 1 20 0 42
2122 1 21 0 42
2123 1 22 0 42
2124 1 23 0 42
2125 2 24 0 42
2126 2 25 0 42
2127 2 26 0 42
2128 2 27 0 42
2129 2 28 0 42