
10000 atoms

2 atom types

0 100 xlo xhi
0 1 ylo yhi
0 100 zlo zhi

Masses

1 1
2 2

Atoms

1 1 0 0 0
2 1 1 0 0
3 1 2 0 0
4 1 3 0 0
5 1 4 0 0
6 1 5 0 0
7 1 6 0 0
8 1 7 0 0
9 1 8 0 0
10 1 9 0 0
11 1 10 0 0
12 1 11 0 0
13 1 12 0 0
14 1 13 0 0
15 1 14 0 0
16 1 15 0 0
17 1 16 0 0
18 1 17 0 0
19 1 18 0 0
20 1 19 0 0
21 1 20 0 0
22 1 21 0 0
23 1 22 0 0
24 1 23 0 0
25 1 24 0 0
26 1 25 0 0
27 1 26 0 0
28 1 27 0 0
29 1 28 0 0
30 1 29 0 0
31 1 30 0 0
32 1 31 0 0
33 1 32 0 0
34 1 33 0 0
35 1 34 0 0
36 1 35 0 0
37 1 36 0 0
38 1 37 0 0
39 1 38 0 0
40 1 39 0 0
41 1 40 0 0
42 1 41 0 0
43 1 42 0 0
44 1 43 0 0
45 1 44 0 0
46 1 45 0 0
47 1 46 0 0
48 1 47 0 0
49 1 48 0 0
50 1 49 0 0
51 1 50 0 0
52 1 51 0 0
53 1 52 0 0
54 2 53 0 0
55 2 54 0 0
56 2 55 0 0
57 2 56 0 0
58 2 57 0 0
59 2 58 0 0
60 2 59 0 0
61 2 60 0 0
62 2 61 0 0
63 2 62 0 0
64 2 63 0 0
65 2 64 0 0
66 2 65 0 0
67 2 66 0 0
68 2 67 0 0
69 2 68 0 0
70 1 69 0 0
71 1 70 0 0
72 1 71 0 0
73 1 72 0 0
74 1 73 0 0
75 1 74 0 0
76 1 75 0 0
77 1 76 0 0
78 1 77 0 0
79 1 78 0 0
80 1 79 0 0
81 1 80 0 0
82 1 81 0 0
83 2 82 0 0
84 2 83 0 0
85 2 84 0 0
86 2 85 0 0
87 1 86 0 0
88 1 87 0 0
89 1 88 0 0
90 1 89 0 0
91 1 90 0 0
92 1 91 0 0
93 1 92 0 0
94 1 93 0 0
95 1 94 0 0
96 1 95 0 0
97 1 96 0 0
98 1 97 0 0
99 1 98 0 0
100 1 99 0 0
101 2 0 0 1
102 2 1 0 1
103 2 2 0 1
104 2 3 0 1
105 2 4 0 1
106 2 5 0 1
107 2 6 0 1
108 2 7 0 1
109 2 8 0 1
110 2 9 0 1
111 1 10 0 1
112 1 11 0 1
113 1 12 0 1
114 1 13 0 1
115 1 14 0 1
116 1 15 0 1
117 1 16 0 1
118 1 17 0 1
119 1 18 0 1
120 1 19 0 1
121 1 20 0 1
122 1 21 0 1
123 1 22 0 1
124 1 23 0 1
125 1 24 0 1
126 1 25 0 1
127 1 26 0 1
128 1 27 0 1
129 1 28 0 1
130 1 29 0 1
131 1 30 0 1
132 1 31 0 1
133 1 32 0 1
134 1 33 0 1
135 1 34 0 1
136 1 35 0 1
137 1 36 0 1
138 1 37 0 1
139 1 38 0 1
140 1 39 0 1
141 1 40 0 1
142 1 41 0 1
143 1 42 0 1
144 1 43 0 1
145 1 44 0 1
146 1 45 0 1
147 1 46 0 1
148 1 47 0 1
149 1 48 0 1
150 1 49 0 1
151 1 50 0 1
152 1 51 0 1
153 1 52 0 1
154 2 53 0 1
155 2 54 0 1
156 2 55 0 1
157 2 56 0 1
158 2 57 0 1
159 2 58 0 1
160 2 59 0 1
161 2 60 0 1
162 2 61 0 1
163 2 62 0 1
164 2 63 0 1
165 2 64 0 1
166 2 65 0 1
167 2 66 0 1
168 2 67 0 1
169 2 68 0 1
170 1 69 0 1
171 1 70 0 1
172 1 71 0 1
173 1 72 0 1
174 1 73 0 1
175 1 74 0 1
176 1 75 0 1
177 1 76 0 1
178 1 77 0 1
179 1 78 0 1
180 2 79 0 1
181 2 80 0 1
182 2 81 0 1
183 2 82 0 1
184 2 83 0 1
185 2 84 0 1
186 2 85 0 1
187 2 86 0 1
188 2 87 0 1
189 2 88 0 1
190 1 89 0 1
191 1 90 0 1
192 1 91 0 1
193 1 92 0 1
194 2 93 0 1
195 2 94 0 1
196 2 95 0 1
197 2 96 0 1
198 2 97 0 1
199 2 98 0 1
200 2 99 0 1
201 2 0 0 2
202 2 1 0 2
203 2 2 0 2
204 2 3 0 2
205 2 4 0 2
206 2 5 0 2
207 2 6 0 2
208 2 7 0 2
209 2 8 0 2
210 1 9 0 2
211 1 10 0 2
212 1 11 0 2
213 1 12 0 2
214 1 13 0 2
215 1 14 0 2
216 1 15 0 2
217 1 16 0 2
218 1 17 0 2
219 1 18 0 2
220 1 19 0 2
221 1 20 0 2
222 1 21 0 2
223 1 22 0 2
224 1 23 0 2
225 1 24 0 2
226 1 25 0 2
227 1 26 0 2
228 1 27 0 2
229 1 28 0 2
230 1 29 0 2
231 1 30 0 2
232 1 31 0 2
233 1 32 0 2
234 1 33 0 2
235 1 34 0 2
236 1 35 0 2
237 1 36 0 2
238 1 37 0 2
239 1 38 0 2
240 1 39 0 2
241 1 40 0 2
242 1 41 0 2
243 1 42 0 2
244 1 43 0 2
245 1 44 0 2
246 1 45 0 2
247 1 46 0 2
248 1 47 0 2
249 1 48 0 2
250 1 49 0 2
251 1 50 0 2
252 1 51 0 2
253 1 52 0 2
254 2 53 0 2
255 2 54 0 2
256 2 55 0 2
257 2 56 0 2
258 2 57 0 2
259 2 58 0 2
260 2 59 0 2
261 2 60 0 2
262 2 61 0 2
263 2 62 0 2
264 2 63 0 2
265 2 64 0 2
266 2 65 0 2
267 2 66 0 2
268 2 67 0 2
269 2 68 0 2
270 1 69 0 2
271 1 70 0 2
272 1 71 0 2
273 1 72 0 2
274 1 73 0 2
275 1 74 0 2
276 1 75 0 2
277 1 76 0 2
278 1 77 0 2
279 2 78 0 2
280 2 79 0 2
281 2 80 0 2
282 2 81 0 2
283 2 82 0 2
284 2 83 0 2
285 2 84 0 2
286 2 85 0 2
287 2 86 0 2
288 2 87 0 2
289 2 88 0 2
290 2 89 0 2
291 1 90 0 2
292 1 91 0 2
293 1 92 0 2
294 1 93 0 2
295 2 94 0 2
296 2 95 0 2
297 2 96 0 2
298 2 97 0 2
299 2 98 0 2
300 2 99 0 2
301 2 0 0 3
302 2 1 0 3
303 2 2 0 3
304 2 3 0 3
305 2 4 0 3
306 2 5 0 3
307 2 6 0 3
308 2 7 0 3
309 1 8 0 3
310 1 9 0 3
311 1 10 0 3
312 1 11 0 3
313 1 12 0 3
314 1 13 0 3
315 1 14 0 3
316 1 15 0 3
317 1 16 0 3
318 1 17 0 3
319 1 18 0 3
320 2 19 0 3
321 2 20 0 3
322 2 21 0 3
323 2 22 0 3
324 2 23 0 3
325 1 24 0 3
326 1 25 0 3
327 1 26 0 3
328 1 27 0 3
329 1 28 0 3
330 1 29 0 3
331 1 30 0 3
332 1 31 0 3
333 1 32 0 3
334 1 33 0 3
335 1 34 0 3
336 1 35 0 3
337 1 36 0 3
338 1 37 0 3
339 1 38 0 3
340 1 39 0 3
341 1 40 0 3
342 1 41 0 3
343 1 42 0 3
344 1 43 0 3
345 1 44 0 3
346 1 45 0 3
347 1 46 0 3
348 1 47 0 3
349 1 48 0 3
350 1 49 0 3
351 1 50 0 3
352 1 51 0 3
353 1 52 0 3
354 2 53 0 3
355 2 54 0 3
356 2 55 0 3
357 2 56 0 3
358 2 57 0 3
359 2 58 0 3
360 2 59 0 3
361 2 60 0 3
362 2 61 0 3
363 2 62 0 3
364 2 63 0 3
365 2 64 0 3
366 2 65 0 3
367 2 66 0 3
368 2 67 0 3
369 2 68 0 3
370 1 69 0 3
371 1 70 0 3
372 1 71 0 3
373 1 72 0 3
374 1 73 0 3
375 1 74 0 3
376 1 75 0 3
377 2 76 0 3
378 2 77 0 3
379 2 78 0 3
380 2 79 0 3
381 2 80 0 3
382 2 81 0 3
383 2 82 0 3
384 2 83 0 3
385 2 84 0 3
386 2 85 0 3
387 2 86 0 3
388 2 87 0 3
389 2 88 0 3
390 2 89 0 3
391 2 90 0 3
392 1 91 0 3
393 1 92 0 3
394 1 93 0 3
395 1 94 0 3
396 2 95 0 3
397 2 96 0 3
398 2 97 0 3
399 2 98 0 3
400 2 99 0 3
401 2 0 0 4
402 2 1 0 4
403 2 2 0 4
404 2 3 0 4
405 2 4 0 4
406 2 5 0 4
407 2 6 0 4
408 1 7 0 4
409 1 8 0 4
410 1 9 0 4
411 1 10 0 4
412 1 11 0 4
413 1 12 0 4
414 1 13 0 4
415 1 14 0 4
416 1 15 0 4
417 1 16 0 4
418 1 17 0 4
419 2 18 0 4
420 2 19 0 4
421 2 20 0 4
422 2 21 0 4
423 2 22 0 4
424 2 23 0 4
425 2 24 0 4
426 1 25 0 4
427 1 26 0 4
428 1 27 0 4
429 1 28 0 4
430 1 29 0 4
431 1 30 0 4
432 1 31 0 4
433 1 32 0 4
434 1 33 0 4
435 1 34 0 4
436 1 35 0 4
437 1 36 0 4
438 1 37 0 4
439 1 38 0 4
440 1 39 0 4
441 1 40 0 4
442 1 41 0 4
443 1 42 0 4
444 1 43 0 4
445 1 44 0 4
446 1 45 0 4
447 1 46 0 4
448 1 47 0 4
449 1 48 0 4
450 1 49 0 4
451 1 50 0 4
452 1 51 0 4
453 1 52 0 4
454 2 53 0 4
455 2 54 0 4
456 2 55 0 4
457 2 56 0 4
458 2 57 0 4
459 2 58 0 4
460 2 59 0 4
461 2 60 0 4
462 2 61 0 4
463 2 62 0 4
464 2 63 0 4
465 2 64 0 4
466 2 65 0 4
467 2 66 0 4
468 2 67 0 4
469 2 68 0 4
470 1 69 0 4
471 1 70 0 4
472 1 71 0 4
473 1 72 0 4
474 1 73 0 4
475 1 74 0 4
476 1 75 0 4
477 2 76 0 4
478 2 77 0 4
479 2 78 0 4
480 2 79 0 4
481 2 80 0 4
482 2 81 0 4
483 2 82 0 4
484 2 83 0 4
485 2 84 0 4
486 2 85 0 4
487 2 86 0 4
488 2 87 0 4
489 2 88 0 4
490 2 89 0 4
491 2 90 0 4
492 2 91 0 4
493 1 92 0 4
494 1 93 0 4
495 1 94 0 4
496 1 95 0 4
497 2 96 0 4
498 2 97 0 4
499 2 98 0 4
500 2 99 0 4
501 2 0 0 5
502 2 1 0 5
503 2 2 0 5
504 2 3 0 5
505 2 4 0 5
506 1 5 0 5
507 1 6 0 5
508 1 7 0 5
509 1 8 0 5
510 1 9 0 5
511 1 10 0 5
512 1 11 0 5
513 1 12 0 5
514 1 13 0 5
515 1 14 0 5
516 1 15 0 5
517 1 16 0 5
518 2 17 0 5
519 2 18 0 5
520 2 19 0 5
521 2 20 0 5
522 2 21 0 5
523 2 22 0 5
524 2 23 0 5
525 2 24 0 5
526 2 25 0 5
527 1 26 0 5
528 1 27 0 5
529 1 28 0 5
530 1 29 0 5
531 1 30 0 5
532 1 31 0 5
533 1 32 0 5
534 1 33 0 5
535 1 34 0 5
536 1 35 0 5
537 1 36 0 5
538 1 37 0 5
539 1 38 0 5
540 1 39 0 5
541 1 40 0 5
542 1 41 0 5
543 1 42 0 5
544 1 43 0 5
545 1 44 0 5
546 1 45 0 5
547 1 46 0 5
548 1 47 0 5
549 1 48 0 5
550 1 49 0 5
551 1 50 0 5
552 1 51 0 5
553 1 52 0 5
554 2 53 0 5
555 2 54 0 5
556 2 55 0 5
557 2 56 0 5
558 2 57 0 5
559 2 58 0 5
560 2 59 0 5
561 2 60 0 5
562 2 61 0 5
563 2 62 0 5
564 2 63 0 5
565 2 64 0 5
566 2 65 0 5
567 2 66 0 5
568 2 67 0 5
569 1 68 0 5
570 1 69 0 5
571 1 70 0 5
572 1 71 0 5
573 1 72 0 5
574 1 73 0 5
575 1 74 0 5
576 2 75 0 5
577 2 76 0 5
578 2 77 0 5
579 2 78 0 5
580 2 79 0 5
581 2 80 0 5
582 2 81 0 5
583 2 82 0 5
584 2 83 0 5
585 2 84 0 5
586 2 85 0 5
587 2 86 0 5
588 2 87 0 5
589 2 88 0 5
590 2 89 0 5
591 2 90 0 5
592 2 91 0 5
593 2 92 0 5
594 1 93 0 5
595 1 94 0 5
596 1 95 0 5
597 1 96 0 5
598 2 97 0 5
599 2 98 0 5
600 2 99 0 5
601 1 0 0 6
602 1 1 0 6
603 1 2 0 6
604 1 3 0 6
605 1 4 0 6
606 1 5 0 6
607 1 6 0 6
608 1 7 0 6
609 1 8 0 6
610 1 9 0 6
611 1 10 0 6
612 1 11 0 6
613 1 12 0 6
614 1 13 0 6
615 1 14 0 6
616 1 15 0 6
617 2 16 0 6
618 2 17 0 6
619 2 18 0 6
620 2 19 0 6
621 2 20 0 6
622 2 21 0 6
623 2 22 0 6
624 2 23 0 6
625 2 24 0 6
626 2 25 0 6
627 2 26 0 6
628 1 27 0 6
629 1 28 0 6
630 1 29 0 6
631 1 30 0 6
632 1 31 0 6
633 1 32 0 6
634 1 33 0 6
635 1 34 0 6
636 1 35 0 6
637 1 36 0 6
638 1 37 0 6
639 1 38 0 6
640 1 39 0 6
641 1 40 0 6
642 1 41 0 6
643 1 42 0 6
644 1 43 0 6
645 1 44 0 6
646 1 45 0 6
647 1 46 0 6
648 1 47 0 6
649 1 48 0 6
650 1 49 0 6
651 1 50 0 6
652 1 51 0 6
653 1 52 0 6
654 1 53 0 6
655 2 54 0 6
656 2 55 0 6
657 2 56 0 6
658 2 57 0 6
659 2 58 0 6
660 2 59 0 6
661 2 60 0 6
662 2 61 0 6
663 2 62 0 6
664 2 63 0 6
665 2 64 0 6
666 2 65 0 6
667 2 66 0 6
668 2 67 0 6
669 1 68 0 6
670 1 69 0 6
671 1 70 0 6
672 1 71 0 6
673 1 72 0 6
674 1 73 0 6
675 2 74 0 6
676 2 75 0 6
677 2 76 0 6
678 2 77 0 6
679 2 78 0 6
680 2 79 0 6
681 2 80 0 6
682 2 81 0 6
683 2 82 0 6
684 2 83 0 6
685 2 84 0 6
686 2 85 0 6
687 2 86 0 6
688 2 87 0 6
689 2 88 0 6
690 2 89 0 6
691 2 90 0 6
692 2 91 0 6
693 2 92 0 6
694 1 93 0 6
695 1 94 0 6
696 1 95 0 6
697 1 96 0 6
698 1 97 0 6
699 1 98 0 6
700 1 99 0 6
701 1 0 0 7
702 1 1 0 7
703 1 2 0 7
704 1 3 0 7
705 1 4 0 7
706 1 5 0 7
707 1 6 0 7
708 1 7 0 7
709 1 8 0 7
710 1 9 0 7
711 1 10 0 7
712 1 11 0 7
713 1 12 0 7
714 1 13 0 7
715 1 14 0 7
716 1 15 0 7
717 2 16 0 7
718 2 17 0 7
719 2 18 0 7
720 2 19 0 7
721 2 20 0 7
722 2 21 0 7
723 2 22 0 7
724 2 23 0 7
725 2 24 0 7
726 2 25 0 7
727 2 26 0 7
728 1 27 0 7
729 1 28 0 7
730 1 29 0 7
731 1 30 0 7
732 1 31 0 7
733 1 32 0 7
734 1 33 0 7
735 1 34 0 7
736 1 35 0 7
737 1 36 0 7
738 1 37 0 7
739 1 38 0 7
740 1 39 0 7
741 1 40 0 7
742 1 41 0 7
743 1 42 0 7
744 1 43 0 7
745 1 44 0 7
746 1 45 0 7
747 1 46 0 7
748 1 47 0 7
749 1 48 0 7
750 1 49 0 7
751 1 50 0 7
752 1 51 0 7
753 1 52 0 7
754 1 53 0 7
755 1 54 0 7
756 2 55 0 7
757 2 56 0 7
758 2 57 0 7
759 2 58 0 7
760 2 59 0 7
761 2 60 0 7
762 2 61 0 7
763 2 62 0 7
764 2 63 0 7
765 2 64 0 7
766 2 65 0 7
767 2 66 0 7
768 1 67 0 7
769 1 68 0 7
770 1 69 0 7
771 1 70 0 7
772 1 71 0 7
773 1 72 0 7
774 1 73 0 7
775 2 74 0 7
776 2 75 0 7
777 2 76 0 7
778 2 77 0 7
779 2 78 0 7
780 2 79 0 7
781 2 80 0 7
782 2 81 0 7
783 2 82 0 7
784 2 83 0 7
785 2 84 0 7
786 2 85 0 7
787 2 86 0 7
788 2 87 0 7
789 2 88 0 7
790 2 89 0 7
791 2 90 0 7
792 2 91 0 7
793 2 92 0 7
794 2 93 0 7
795 1 94 0 7
796 1 95 0 7
797 1 96 0 7
798 1 97 0 7
799 1 98 0 7
800 1 99 0 7
801 1 0 0 8
802 1 1 0 8
803 1 2 0 8
804 1 3 0 8
805 1 4 0 8
806 1 5 0 8
807 1 6 0 8
808 1 7 0 8
809 1 8 0 8
810 1 9 0 8
811 1 10 0 8
812 1 11 0 8
813 1 12 0 8
814 1 13 0 8
815 1 14 0 8
816 1 15 0 8
817 2 16 0 8
818 2 17 0 8
819 2 18 0 8
820 2 19 0 8
821 2 20 0 8
822 2 21 0 8
823 2 22 0 8
824 2 23 0 8
825 2 24 0 8
826 2 25 0 8
827 2 26 0 8
828 1 27 0 8
829 1 28 0 8
830 1 29 0 8
831 1 30 0 8
832 1 31 0 8
833 1 32 0 8
834 1 33 0 8
835 1 34 0 8
836 1 35 0 8
837 1 36 0 8
838 1 37 0 8
839 1 38 0 8
840 1 39 0 8
841 1 40 0 8
842 1 41 0 8
843 1 42 0 8
844 1 43 0 8
845 1 44 0 8
846 1 45 0 8
847 1 46 0 8
848 1 47 0 8
849 1 48 0 8
850 1 49 0 8
851 1 50 0 8
852 1 51 0 8
853 1 52 0 8
854 1 53 0 8
855 1 54 0 8
856 1 55 0 8
857 2 56 0 8
858 2 57 0 8
859 2 58 0 8
860 2 59 0 8
861 2 60 0 8
862 2 61 0 8
863 2 62 0 8
864 2 63 0 8
865 2 64 0 8
866 2 65 0 8
867 1 66 0 8
868 1 67 0 8
869 1 68 0 8
870 1 69 0 8
871 1 70 0 8
872 1 71 0 8
873 1 72 0 8
874 1 73 0 8
875 2 74 0 8
876 2 75 0 8
877 2 76 0 8
878 2 77 0 8
879 2 78 0 8
880 2 79 0 8
881 2 80 0 8
882 2 81 0 8
883 2 82 0 8
884 2 83 0 8
885 2 84 0 8
886 2 85 0 8
887 2 86 0 8
888 2 87 0 8
889 2 88 0 8
890 2 89 0 8
891 2 90 0 8
892 2 91 0 8
893 2 92 0 8
894 2 93 0 8
895 1 94 0 8
896 1 95 0 8
897 1 96 0 8
898 1 97 0 8
899 1 98 0 8
900 1 99 0 8
901 1 0 0 9
902 1 1 0 9
903 1 2 0 9
904 1 3 0 9
905 1 4 0 9
906 1 5 0 9
907 1 6 0 9
908 1 7 0 9
909 1 8 0 9
910 1 9 0 9
911 1 10 0 9
912 1 11 0 9
913 1 12 0 9
914 1 13 0 9
915 1 14 0 9
916 1 15 0 9
917 2 16 0 9
918 2 17 0 9
919 2 18 0 9
920 2 19 0 9
921 2 20 0 9
922 2 21 0 9
923 2 22 0 9
924 2 23 0 9
925 2 24 0 9
926 2 25 0 9
927 2 26 0 9
928 1 27 0 9
929 1 28 0 9
930 1 29 0 9
931 1 30 0 9
932 1 31 0 9
933 1 32 0 9
934 1 33 0 9
935 1 34 0 9
936 1 35 0 9
937 1 36 0 9
938 1 37 0 9
939 1 38 0 9
940 1 39 0 9
941 1 40 0 9
942 1 41 0 9
943 1 42 0 9
944 1 43 0 9
945 1 44 0 9
946 1 45 0 9
947 1 46 0 9
948 1 47 0 9
949 1 48 0 9
950 1 49 0 9
951 1 50 0 9
952 1 51 0 9
953 1 52 0 9
954 1 53 0 9
955 1 54 0 9
956 1 55 0 9
957 1 56 0 9
958 2 57 0 9
959 2 58 0 9
960 2 59 0 9
961 2 60 0 9
962 2 61 0 9
963 2 62 0 9
964 2 63 0 9
965 2 64 0 9
966 1 65 0 9
967 1 66 0 9
968 1 67 0 9
969 1 68 0 9
970 1 69 0 9
971 1 70 0 9
972 1 71 0 9
973 1 72 0 9
974 1 73 0 9
975 2 74 0 9
976 2 75 0 9
977 2 76 0 9
978 2 77 0 9
979 2 78 0 9
980 2 79 0 9
981 2 80 0 9
982 2 81 0 9
983 2 82 0 9
984 2 83 0 9
985 2 84 0 9
986 2 85 0 9
987 2 86 0 9
988 2 87 0 9
989 2 88 0 9
990 2 89 0 9
991 2 90 0 9
992 2 91 0 9
993 2 92 0 9
994 2 93 0 9
995 1 94 0 9
996 1 95 0 9
997 1 96 0 9
998 1 97 0 9
999 1 98 0 9
1000 1 99 0 9
1001 1 0 0 10
1002 1 1 0 10
1003 1 2 0 10
1004 1 3 0 10
1005 1 4 0 10
1006 1 5 0 10
1007 1 6 0 10
1008 1 7 0 10
1009 1 8 0 10
1010 1 9 0 10
1011 1 10 0 10
1012 1 11 0 10
1013 1 12 0 10
1014 1 13 0 10
1015 1 14 0 10
1016 1 15 0 10
1017 2 16 0 10
1018 2 17 0 10
1019 2 18 0 10
1020 2 19 0 10
1021 2 20 0 10
1022 2 21 0 10
1023 2 22 0 10
1024 2 23 0 10
1025 2 24 0 10
1026 2 25 0 10
1027 2 26 0 10
1028 1 27 0 10
1029 1 28 0 10
1030 1 29 0 10
1031 1 30 0 10
1032 1 31 0 10
1033 1 32 0 10
1034 1 33 0 10
1035 1 34 0 10
1036 1 35 0 10
1037 1 36 0 10
1038 1 37 0 10
1039 1 38 0 10
1040 1 39 0 10
1041 1 40 0 10
1042 1 41 0 10
1043 1 42 0 10
1044 1 43 0 10
1045 1 44 0 10
1046 1 45 0 10
1047 1 46 0 10
1048 1 47 0 10
1049 1 48 0 10
1050 1 49 0 10
1051 1 50 0 10
1052 1 51 0 10
1053 1 52 0 10
1054 1 53 0 10
1055 1 54 0 10
1056 1 55 0 10
1057 1 56 0 10
1058 1 57 0 10
1059 1 58 0 10
1060 1 59 0 10
1061 1 60 0 10
1062 1 61 0 10
1063 1 62 0 10
1064 1 63 0 10
1065 1 64 0 10
1066 1 65 0 10
1067 1 66 0 10
1068 1 67 0 10
1069 1 68 0 10
1070 1 69 0 10
1071 1 70 0 10
1072 1 71 0 10
1073 1 72 0 10
1074 2 73 0 10
1075 2 74 0 10
1076 2 75 0 10
1077 2 76 0 10
1078 2 77 0 10
1079 2 78 0 10
1080 2 79 0 10
1081 2 80 0 10
1082 2 81 0 10
1083 2 82 0 10
1084 2 83 0 10
1085 2 84 0 10
1086 2 85 0 10
1087 2 86 0 10
1088 2 87 0 10
1089 2 88 0 10
1090 2 89 0 10
1091 2 90 0 10
1092 2 91 0 10
1093 2 92 0 10
1094 2 93 0 10
1095 1 94 0 10
1096 1 95 0 10
1097 1 96 0 10
1098 1 97 0 10
1099 1 98 0 10
1100 1 99 0 10
1101 1 0 0 11
1102 1 1 0 11
1103 1 2 0 11
1104 1 3 0 11
1105 1 4 0 11
1106 1 5 0 11
1107 1 6 0 11
1108 1 7 0 11
1109 1 8 0 11
1110 1 9 0 11
1111 1 10 0 11
1112 1 11 0 11
1113 1 12 0 11
1114 1 13 0 11
1115 1 14 0 11
1116 1 15 0 11
1117 2 16 0 11
1118 2 17 0 11
1119 2 18 0 11
1120 2 19 0 11
1121 2 20 0 11
1122 2 21 0 11
1123 2 22 0 11
1124 2 23 0 11
1125 2 24 0 11
1126 2 25 0 11
1127 2 26 0 11
1128 1 27 0 11
1129 1 28 0 11
1130 1 29 0 11
1131 1 30 0 11
1132 1 31 0 11
1133 1 32 0 11
1134 1 33 0 11
1135 1 34 0 11
1136 1 35 0 11
1137 1 36 0 11
1138 1 37 0 11
1139 1 38 0 11
1140 1 39 0 11
1141 1 40 0 11
1142 1 41 0 11
1143 1 42 0 11
1144 1 43 0 11
1145 1 44 0 11
1146 1 45 0 11
1147 1 46 0 11
1148 1 47 0 11
1149 1 48 0 11
1150 1 49 0 11
1151 1 50 0 11
1152 1 51 0 11
1153 1 52 0 11
1154 1 53 0 11
1155 1 54 0 11
1156 1 55 0 11
1157 1 56 0 11
1158 1 57 0 11
1159 1 58 0 11
1160 1 59 0 11
1161 1 60 0 11
1162 1 61 0 11
1163 1 62 0 11
1164 1 63 0 11
1165 1 64 0 11
1166 1 65 0 11
1167 1 66 0 11
1168 1 67 0 11
1169 1 68 0 11
1170 1 69 0 11
1171 1 70 0 11
1172 1 71 0 11
1173 1 72 0 11
1174 2 73 0 11
1175 2 74 0 11
1176 2 75 0 11
1177 2 76 0 11
1178 2 77 0 11
1179 2 78 0 11
1180 2 79 0 11
1181 2 80 0 11
1182 2 81 0 11
1183 2 82 0 11
1184 2 83 0 11
1185 2 84 0 11
1186 2 85 0 11
1187 2 86 0 11
1188 2 87 0 11
1189 2 88 0 11
1190 2 89 0 11
1191 2 90 0 11
1192 2 91 0 11
1193 2 92 0 11
1194 2 93 0 11
1195 1 94 0 11
1196 1 95 0 11
1197 1 96 0 11
1198 1 97 0 11
1199 1 98 0 11
1200 1 99 0 11
1201 1 0 0 12
1202 1 1 0 12
1203 1 2 0 12
1204 1 3 0 12
1205 1 4 0 12
1206 1 5 0 12
1207 1 6 0 12
1208 1 7 0 12
1209 1 8 0 12
1210 1 9 0 12
1211 1 10 0 12
1212 1 11 0 12
1213 1 12 0 12
1214 1 13 0 12
1215 1 14 0 12
1216 1 15 0 12
1217 1 16 0 12
1218 2 17 0 12
1219 2 18 0 12
1220 2 19 0 12
1221 2 20 0 12
1222 2 21 0 12
1223 2 22 0 12
1224 2 23 0 12
1225 2 24 0 12
1226 2 25 0 12
1227 1 26 0 12
1228 1 27 0 12
1229 1 28 0 12
1230 1 29 0 12
1231 1 30 0 12
1232 1 31 0 12
1233 1 32 0 12
1234 1 33 0 12
1235 1 34 0 12
1236 1 35 0 12
1237 1 36 0 12
1238 1 37 0 12
1239 1 38 0 12
1240 1 39 0 12
1241 1 40 0 12
1242 1 41 0 12
1243 1 42 0 12
1244 1 43 0 12
1245 1 44 0 12
1246 1 45 0 12
1247 1 46 0 12
1248 1 47 0 12
1249 1 48 0 12
1250 1 49 0 12
1251 1 50 0 12
1252 1 51 0 12
1253 1 52 0 12
1254 1 53 0 12
1255 1 54 0 12
1256 1 55 0 12
1257 1 56 0 12
1258 1 57 0 12
1259 1 58 0 12
1260 1 59 0 12
1261 1 60 0 12
1262 1 61 0 12
1263 1 62 0 12
1264 1 63 0 12
1265 1 64 0 12
1266 1 65 0 12
1267 1 66 0 12
1268 1 67 0 12
1269 1 68 0 12
1270 1 69 0 12
1271 1 70 0 12
1272 1 71 0 12
1273 1 72 0 12
1274 1 73 0 12
1275 2 74 0 12
1276 2 75 0 12
1277 2 76 0 12
1278 2 77 0 12
1279 2 78 0 12
1280 2 79 0 12
1281 2 80 0 12
1282 2 81 0 12
1283 2 82 0 12
1284 2 83 0 12
1285 2 84 0 12
1286 2 85 0 12
1287 2 86 0 12
1288 2 87 0 12
1289 2 88 0 12
1290 2 89 0 12
1291 2 90 0 12
1292 2 91 0 12
1293 2 92 0 12
1294 2 93 0 12
1295 1 94 0 12
1296 1 95 0 12
1297 1 96 0 12
1298 1 97 0 12
1299 1 98 0 12
1300 1 99 0 12
1301 1 0 0 13
1302 1 1 0 13
1303 1 2 0 13
1304 1 3 0 13
1305 1 4 0 13
1306 1 5 0 13
1307 1 6 0 13
1308 1 7 0 13
1309 1 8 0 13
1310 1 9 0 13
1311 1 10 0 13
1312 1 11 0 13
1313 1 12 0 13
1314 1 13 0 13
1315 1 14 0 13
1316 1 15 0 13
1317 1 16 0 13
1318 1 17 0 13
1319 2 18 0 13
1320 2 19 0 13
1321 2 20 0 13
1322 2 21 0 13
1323 2 22 0 13
1324 2 23 0 13
1325 2 24 0 13
1326 1 25 0 13
1327 1 26 0 13
1328 1 27 0 13
1329 1 28 0 13
1330 1 29 0 13
1331 1 30 0 13
1332 1 31 0 13
1333 1 32 0 13
1334 1 33 0 13
1335 1 34 0 13
1336 1 35 0 13
1337 1 36 0 13
1338 1 37 0 13
1339 1 38 0 13
1340 1 39 0 13
1341 1 40 0 13
1342 1 41 0 13
1343 1 42 0 13
1344 1 43 0 13
1345 1 44 0 13
1346 1 45 0 13
1347 1 46 0 13
1348 1 47 0 13
1349 1 48 0 13
1350 1 49 0 13
1351 1 50 0 13
1352 1 51 0 13
1353 1 52 0 13
1354 1 53 0 13
1355 1 54 0 13
1356 1 55 0 13
1357 1 56 0 13
1358 1 57 0 13
1359 1 58 0 13
1360 1 59 0 13
1361 1 60 0 13
1362 1 61 0 13
1363 1 62 0 13
1364 1 63 0 13
1365 1 64 0 13
1366 1 65 0 13
1367 1 66 0 13
1368 1 67 0 13
1369 1 68 0 13
1370 1 69 0 13
1371 1 70 0 13
1372 1 71 0 13
1373 1 72 0 13
1374 1 73 0 13
1375 2 74 0 13
1376 2 75 0 13
1377 2 76 0 13
1378 2 77 0 13
1379 2 78 0 13
1380 2 79 0 13
1381 2 80 0 13
1382 2 81 0 13
1383 2 82 0 13
1384 2 83 0 13
1385 2 84 0 13
1386 2 85 0 13
1387 2 86 0 13
1388 2 87 0 13
1389 2 88 0 13
1390 2 89 0 13
1391 2 90 0 13
1392 2 91 0 13
1393 2 92 0 13
1394 2 93 0 13
1395 1 94 0 13
1396 1 95 0 13
1397 1 96 0 13
1398 1 97 0 13
1399 1 98 0 13
1400 1 99 0 13
1401 1 0 0 14
1402 1 1 0 14
1403 1 2 0 14
1404 1 3 0 14
1405 1 4 0 14
1406 1 5 0 14
1407 1 6 0 14
1408 1 7 0 14
1409 1 8 0 14
1410 1 9 0 14
1411 1 10 0 14
1412 1 11 0 14
1413 1 12 0 14
1414 1 13 0 14
1415 1 14 0 14
1416 1 15 0 14
1417 1 16 0 14
1418 1 17 0 14
1419 1 18 0 14
1420 1 19 0 14
1421 2 20 0 14
1422 2 21 0 14
1423 2 22 0 14
1424 1 23 0 14
1425 1 24 0 14
1426 1 25 0 14
1427 1 26 0 14
1428 1 27 0 14
1429 1 28 0 14
1430 1 29 0 14
1431 1 30 0 14
1432 1 31 0 14
1433 1 32 0 14
1434 1 33 0 14
1435 1 34 0 14
1436 1 35 0 14
1437 1 36 0 14
1438 1 37 0 14
1439 1 38 0 14
1440 1 39 0 14
1441 1 40 0 14
1442 1 41 0 14
1443 1 42 0 14
1444 1 43 0 14
1445 1 44 0 14
1446 1 45 0 14
1447 1 46 0 14
1448 1 47 0 14
1449 1 48 0 14
1450 1 49 0 14
1451 1 50 0 14
1452 1 51 0 14
1453 1 52 0 14
1454 1 53 0 14
1455 1 54 0 14
1456 1 55 0 14
1457 1 56 0 14
1458 1 57 0 14
1459 1 58 0 14
1460 1 59 0 14
1461 1 60 0 14
1462 1 61 0 14
1463 1 62 0 14
1464 1 63 0 14
1465 1 64 0 14
1466 1 65 0 14
1467 1 66 0 14
1468 1 67 0 14
1469 1 68 0 14
1470 1 69 0 14
1471 1 70 0 14
1472 1 71 0 14
1473 1 72 0 14
1474 1 73 0 14
1475 2 74 0 14
1476 2 75 0 14
1477 2 76 0 14
1478 2 77 0 14
1479 2 78 0 14
1480 2 79 0 14
1481 2 80 0 14
1482 2 81 0 14
1483 2 82 0 14
1484 2 83 0 14
1485 2 84 0 14
1486 2 85 0 14
1487 2 86 0 14
1488 2 87 0 14
1489 2 88 0 14
1490 2 89 0 14
1491 2 90 0 14
1492 2 91 0 14
1493 2 92 0 14
1494 2 93 0 14
1495 1 94 0 14
1496 1 95 0 14
1497 1 96 0 14
1498 1 97 0 14
1499 1 98 0 14
1500 1 99 0 14
1501 1 0 0 15
1502 1 1 0 15
1503 1 2 0 15
1504 1 3 0 15
1505 1 4 0 15
1506 1 5 0 15
1507 1 6 0 15
1508 1 7 0 15
1509 1 8 0 15
1510 1 9 0 15
1511 1 10 0 15
1512 1 11 0 15
1513 1 12 0 15
1514 1 13 0 15
1515 1 14 0 15
1516 1 15 0 15
1517 1 16 0 15
1518 1 17 0 15
1519 1 18 0 15
1520 1 19 0 15
1521 1 20 0 15
1522 1 21 0 15
1523 1 22 0 15
1524 1 23 0 15
1525 1 24 0 15
1526 1 25 0 15
1527 1 26 0 15
1528 1 27 0 15
1529 1 28 0 15
1530 1 29 0 15
1531 1 30 0 15
1532 1 31 0 15
1533 1 32 0 15
1534 1 33 0 15
1535 1 34 0 15
1536 1 35 0 15
1537 1 36 0 15
1538 1 37 0 15
1539 1 38 0 15
1540 1 39 0 15
1541 1 40 0 15
1542 1 41 0 15
1543 1 42 0 15
1544 1 43 0 15
1545 1 44 0 15
1546 1 45 0 15
1547 1 46 0 15
1548 1 47 0 15
1549 1 48 0 15
1550 1 49 0 15
1551 1 50 0 15
1552 1 51 0 15
1553 1 52 0 15
1554 1 53 0 15
1555 1 54 0 15
1556 1 55 0 15
1557 1 56 0 15
1558 1 57 0 15
1559 1 58 0 15
1560 1 59 0 15
1561 1 60 0 15
1562 1 61 0 15
1563 1 62 0 15
1564 1 63 0 15
1565 1 64 0 15
1566 1 65 0 15
1567 1 66 0 15
1568 1 67 0 15
1569 1 68 0 15
1570 1 69 0 15
1571 1 70 0 15
1572 1 71 0 15
1573 1 72 0 15
1574 1 73 0 15
1575 1 74 0 15
1576 2 75 0 15
1577 2 76 0 15
1578 2 77 0 15
1579 2 78 0 15
1580 2 79 0 15
1581 2 80 0 15
1582 2 81 0 15
1583 2 82 0 15
1584 2 83 0 15
1585 2 84 0 15
1586 2 85 0 15
1587 2 86 0 15
1588 2 87 0 15
1589 2 88 0 15
1590 2 89 0 15
1591 2 90 0 15
1592 2 91 0 15
1593 2 92 0 15
1594 1 93 0 15
1595 1 94 0 15
1596 1 95 0 15
1597 1 96 0 15
1598 1 97 0 15
1599 1 98 0 15
1600 1 99 0 15
1601 1 0 0 16
1602 1 1 0 16
1603 1 2 0 16
1604 1 3 0 16
1605 1 4 0 16
1606 1 5 0 16
1607 1 6 0 16
1608 1 7 0 16
1609 1 8 0 16
1610 1 9 0 16
1611 1 10 0 16
1612 1 11 0 16
1613 1 12 0 16
1614 1 13 0 16
1615 1 14 0 16
1616 1 15 0 16
1617 1 16 0 16
1618 1 17 0 16
1619 1 18 0 16
1620 1 19 0 16
1621 1 20 0 16
1622 1 21 0 16
1623 1 22 0 16
1624 1 23 0 16
1625 1 24 0 16
1626 1 25 0 16
1627 1 26 0 16
1628 1 27 0 16
1629 1 28 0 16
1630 1 29 0 16
1631 1 30 0 16
1632 1 31 0 16
1633 1 32 0 16
1634 1 33 0 16
1635 1 34 0 16
1636 1 35 0 16
1637 1 36 0 16
1638 1 37 0 16
1639 1 38 0 16
1640 1 39 0 16
1641 1 40 0 16
1642 1 41 0 16
1643 1 42 0 16
1644 1 43 0 16
1645 1 44 0 16
1646 1 45 0 16
1647 1 46 0 16
1648 1 47 0 16
1649 1 48 0 16
1650 1 49 0 16
1651 1 50 0 16
1652 1 51 0 16
1653 1 52 0 16
1654 1 53 0 16
1655 1 54 0 16
1656 1 55 0 16
1657 1 56 0 16
1658 1 57 0 16
1659 1 58 0 16
1660 1 59 0 16
1661 1 60 0 16
1662 1 61 0 16
1663 1 62 0 16
1664 1 63 0 16
1665 1 64 0 16
1666 1 65 0 16
1667 1 66 0 16
1668 1 67 0 16
1669 1 68 0 16
1670 1 69 0 16
1671 1 70 0 16
1672 1 71 0 16
1673 1 72 0 16
1674 1 73 0 16
1675 1 74 0 16
1676 2 75 0 16
1677 2 76 0 16
1678 2 77 0 16
1679 2 78 0 16
1680 2 79 0 16
1681 2 80 0 16
1682 2 81 0 16
1683 2 82 0 16
1684 2 83 0 16
1685 2 84 0 16
1686 2 85 0 16
1687 2 86 0 16
1688 2 87 0 16
1689 2 88 0 16
1690 2 89 0 16
1691 2 90 0 16
1692 2 91 0 16
1693 2 92 0 16
1694 1 93 0 16
1695 1 94 0 16
1696 1 95 0 16
1697 1 96 0 16
1698 1 97 0 16
1699 1 98 0 16
1700 1 99 0 16
1701 1 0 0 17
1702 1 1 0 17
1703 1 2 0 17
1704 1 3 0 17
1705 1 4 0 17
1706 1 5 0 17
1707 1 6 0 17
1708 1 7 0 17
1709 1 8 0 17
1710 1 9 0 17
1711 1 10 0 17
1712 1 11 0 17
1713 1 12 0 17
1714 1 13 0 17
1715 1 14 0 17
1716 1 15 0 17
1717 1 16 0 17
1718 1 17 0 17
1719 1 18 0 17
1720 1 19 0 17
1721 1 20 0 17
1722 1 21 0 17
1723 1 22 0 17
1724 1 23 0 17
1725 1 24 0 17
1726 1 25 0 17
1727 1 26 0 17
1728 1 27 0 17
1729 1 28 0 17
1730 1 29 0 17
1731 1 30 0 17
1732 1 31 0 17
1733 1 32 0 17
1734 1 33 0 17
1735 1 34 0 17
1736 1 35 0 17
1737 1 36 0 17
1738 1 37 0 17
1739 1 38 0 17
1740 1 39 0 17
1741 1 40 0 17
1742 1 41 0 17
1743 1 42 0 17
1744 1 43 0 17
1745 1 44 0 17
1746 1 45 0 17
1747 1 46 0 17
1748 1 47 0 17
1749 1 48 0 17
1750 1 49 0 17
1751 1 50 0 17
1752 1 51 0 17
1753 1 52 0 17
1754 1 53 0 17
1755 1 54 0 17
1756 1 55 0 17
1757 1 56 0 17
1758 1 57 0 17
1759 1 58 0 17
1760 1 59 0 17
1761 1 60 0 17
1762 1 61 0 17
1763 1 62 0 17
1764 1 63 0 17
1765 1 64 0 17
1766 1 65 0 17
1767 1 66 0 17
1768 1 67 0 17
1769 1 68 0 17
1770 1 69 0 17
1771 1 70 0 17
1772 1 71 0 17
1773 1 72 0 17
1774 1 73 0 17
1775 1 74 0 17
1776 1 75 0 17
1777 2 76 0 17
1778 2 77 0 17
1779 2 78 0 17
1780 2 79 0 17
1781 2 80 0 17
1782 2 81 0 17
1783 2 82 0 17
1784 2 83 0 17
1785 2 84 0 17
1786 2 85 0 17
1787 2 86 0 17
1788 2 87 0 17
1789 2 88 0 17
1790 2 89 0 17
1791 2 90 0 17
1792 2 91 0 17
1793 1 92 0 17
1794 1 93 0 17
1795 1 94 0 17
1796 1 95 0 17
1797 1 96 0 17
1798 1 97 0 17
1799 1 98 0 17
1800 1 99 0 17
1801 1 0 0 18
1802 1 1 0 18
1803 1 2 0 18
1804 1 3 0 18
1805 1 4 0 18
1806 1 5 0 18
1807 1 6 0 18
1808 1 7 0 18
1809 1 8 0 18
1810 1 9 0 18
1811 1 10 0 18
1812 1 11 0 18
1813 1 12 0 18
1814 1 13 0 18
1815 1 14 0 18
1816 1 15 0 18
1817 1 16 0 18
1818 1 17 0 18
1819 1 18 0 18
1820 1 19 0 18
1821 1 20 0 18
1822 1 21 0 18
1823 1 22 0 18
1824 1 23 0 18
1825 1 24 0 18
1826 1 25 0 18
1827 1 26 0 18
1828 1 27 0 18
1829 1 28 0 18
1830 1 29 0 18
1831 1 30 0 18
1832 1 31 0 18
1833 1 32 0 18
1834 1 33 0 18
1835 1 34 0 18
1836 1 35 0 18
1837 1 36 0 18
1838 1 37 0 18
1839 1 38 0 18
1840 1 39 0 18
1841 1 40 0 18
1842 1 41 0 18
1843 1 42 0 18
1844 1 43 0 18
1845 1 44 0 18
1846 1 45 0 18
1847 1 46 0 18
1848 1 47 0 18
1849 1 48 0 18
1850 1 49 0 18
1851 1 50 0 18
1852 1 51 0 18
1853 1 52 0 18
1854 1 53 0 18
1855 1 54 0 18
1856 1 55 0 18
1857 1 56 0 18
1858 1 57 0 18
1859 1 58 0 18
1860 1 59 0 18
1861 1 60 0 18
1862 1 61 0 18
1863 1 62 0 18
1864 1 63 0 18
1865 1 64 0 18
1866 1 65 0 18
1867 1 66 0 18
1868 1 67 0 18
1869 1 68 0 18
1870 1 69 0 18
1871 1 70 0 18
1872 1 71 0 18
1873 1 72 0 18
1874 1 73 0 18
1875 1 74 0 18
1876 1 75 0 18
1877 1 76 0 18
1878 2 77 0 18
1879 2 78 0 18
1880 2 79 0 18
1881 2 80 0 18
1882 2 81 0 18
1883 2 82 0 18
1884 2 83 0 18
1885 2 84 0 18
1886 2 85 0 18
1887 2 86 0 18
1888 2 87 0 18
1889 2 88 0 18
1890 2 89 0 18
1891 2 90 0 18
1892 1 91 0 18
1893 1 92 0 18
1894 1 93 0 18
1895 1 94 0 18
1896 1 95 0 18
1897 1 96 0 18
1898 1 97 0 18
1899 1 98 0 18
1900 1 99 0 18
1901 1 0 0 19
1902 1 1 0 19
1903 1 2 0 19
1904 1 3 0 19
1905 1 4 0 19
1906 1 5 0 19
1907 1 6 0 19
1908 1 7 0 19
1909 1 8 0 19
1910 1 9 0 19
1911 1 10 0 19
1912 1 11 0 19
1913 1 12 0 19
1914 1 13 0 19
1915 1 14 0 19
1916 1 15 0 19
1917 1 16 0 19
1918 1 17 0 19
1919 1 18 0 19
1920 1 19 0 19
1921 1 20 0 19
1922 1 21 0 19
1923 1 22 0 19
1924 1 23 0 19
1925 1 24 0 19
1926 1 25 0 19
1927 1 26 0 19
1928 1 27 0 19
1929 1 28 0 19
1930 1 29 0 19
1931 1 30 0 19
1932 1 31 0 19
1933 1 32 0 19
1934 1 33 0 19
1935 1 34 0 19
1936 1 35 0 19
1937 1 36 0 19
1938 1 37 0 19
1939 1 38 0 19
1940 1 39 0 19
1941 1 40 0 19
1942 1 41 0 19
1943 1 42 0 19
1944 1 43 0 19
1945 1 44 0 19
1946 1 45 0 19
1947 1 46 0 19
1948 1 47 0 19
1949 1 48 0 19
1950 1 49 0 19
1951 1 50 0 19
1952 1 51 0 19
1953 1 52 0 19
1954 1 53 0 19
1955 1 54 0 19
1956 1 55 0 19
1957 1 56 0 19
1958 1 57 0 19
1959 1 58 0 19
1960 1 59 0 19
1961 1 60 0 19
1962 1 61 0 19
1963 1 62 0 19
1964 1 63 0 19
1965 1 64 0 19
1966 1 65 0 19
1967 1 66 0 19
1968 1 67 0 19
1969 1 68 0 19
1970 1 69 0 19
1971 1 70 0 19
1972 1 71 0 19
1973 1 72 0 19
1974 1 73 0 19
1975 1 74 0 19
1976 1 75 0 19
1977 1 76 0 19
1978 1 77 0 19
1979 2 78 0 19
1980 2 79 0 19
1981 2 80 0 19
1982 2 81 0 19
1983 2 82 0 19
1984 2 83 0 19
1985 2 84 0 19
1986 2 85 0 19
1987 2 86 0 19
1988 2 87 0 19
1989 2 88 0 19
1990 2 89 0 19
1991 1 90 0 19
1992 1 91 0 19
1993 1 92 0 19
1994 1 93 0 19
1995 1 94 0 19
1996 1 95 0 19
1997 1 96 0 19
1998 1 97 0 19
1999 1 98 0 19
2000 1 99 0 19
2001 1 0 0 20
2002 1 1 0 20
2003 1 2 0 20
2004 1 3 0 20
2005 1 4 0 20
2006 1 5 0 20
2007 1 6 0 20
2008 1 7 0 20
2009 1 8 0 20
2010 1 9 0 20
2011 1 10 0 20
2012 1 11 0 20
2013 1 12 0 20
2014 1 13 0 20
2015 1 14 0 20
2016 1 15 0 20
2017 1 16 0 20
2018 1 17 0 20
2019 1 18 0 20
2020 1 19 0 20
2021 1 20 0 20
2022 1 21 0 20
2023 1 22 0 20
2024 1 23 0 20
2025 1 24 0 20
2026 1 25 0 20
2027 1 26 0 20
2028 1 27 0 20
2029 1 28 0 20
2030 1 29 0 20
2031 1 30 0 20
2032 1 31 0 20
2033 1 32 0 20
2034 1 33 0 20
2035 1 34 0 20
2036 1 35 0 20
2037 1 36 0 20
2038 1 37 0 20
2039 1 38 0 20
2040 1 39 0 20
2041 1 40 0 20
2042 1 41 0 20
2043 1 42 0 20
2044 1 43 0 20
2045 1 44 0 20
2046 1 45 0 20
2047 1 46 0 20
2048 1 47 0 20
2049 1 48 0 20
2050 1 49 0 20
2051 1 50 0 20
2052 1 51 0 20
2053 1 52 0 20
2054 1 53 0 20
2055 1 54 0 20
2056 1 55 0 20
2057 1 56 0 20
2058 1 57 0 20
2059 1 58 0 20
2060 1 59 0 20
2061 1 60 0 20
2062 1 61 0 20
2063 1 62 0 20
2064 1 63 0 20
2065 1 64 0 20
2066 1 65 0 20
2067 1 66 0 20
2068 1 67 0 20
2069 1 68 0 20
2070 1 69 0 20
2071 1 70 0 20
2072 1 71 0 20
2073 1 72 0 20
2074 1 73 0 20
2075 1 74 0 20
2076 1 75 0 20
2077 1 76 0 20
2078 1 77 0 20
2079 1 78 0 20
2080 1 79 0 20
2081 2 80 0 20
2082 2 81 0 20
2083 2 82 0 20
2084 2 83 0 20
2085 2 84 0 20
2086 2 85 0 20
2087 2 86 0 20
2088 2 87 0 20
2089 1 88 0 20
2090 1 89 0 20
2091 1 90 0 20
2092 1 91 0 20
2093 1 92 0 20
2094 1 93 0 20
2095 1 94 0 20
2096 1 95 0 20
2097 1 96 0 20
2098 1 97 0 20
2099 1 98 0 20
2100 1 99 0 20
2101 1 0 0 21
2102 1 1 0 21
2103 1 2 0 21
2104 1 3 0 21
2105 1 4 0 21
2106 1 5 0 21
2107 1 6 0 21
2108 1 7 0 21
2109 1 8 0 21
2110 1 9 0 21
2111 1 10 0 21
2112 1 11 0 21
2113 1 12 0 21
2114 1 13 0 21
2115 1 14 0 21
2116 1 15 0 21
2117 1 16 0 21
2118 1 17 0 21
2119 1 18 0 21
2120 1 19 0 21
2121 1 20 0 21
2122 1 21 0 21
2123 1 22 0 21
2124 1 23 0 21
2125 1 24 0 21
2126 1 25 0 21
2127 1 26 0 21
2128 1 27 0 21
2129 1 28 0 21
2130 1 29 0 21
2131 1 30 0 21
2132 1 31 0 21
2133 1 32 0 21
2134 1 33 0 21
2135 1 34 0 21
2136 1 35 0 21
2137 1 36 0 21
2138 1 37 0 21
2139 1 38 0 21
2140 1 39 0 21
2141 1 40 0 21
2142 1 41 0 21
2143 1 42 0 21
2144 1 43 0 21
2145 1 44 0 21
2146 1 45 0 21
2147 1 46 0 21
2148 1 47 0 21